/*--------------------------------*- C++ -*----------------------------------*\
  =========                 |
  \\      /  F ield         | OpenFOAM: The Open Source CFD Toolbox
   \\    /   O peration     | Website:  https://openfoam.org
    \\  /    A nd           | Version:  9
     \\/     M anipulation  |
\*---------------------------------------------------------------------------*/
FoamFile
{
    format      ascii;
    class       volScalarField;
    location    "0.14";
    object      epsilon;
}
// * * * * * * * * * * * * * * * * * * * * * * * * * * * * * * * * * * * * * //

dimensions      [0 2 -3 0 0 0 0];

internalField   nonuniform List<scalar> 
12225
(
209.768
126.361
81.8705
58.5092
45.8862
38.5037
33.64
30.0321
27.1236
24.6702
22.5564
20.7217
19.1346
17.7927
16.7679
16.5658
21.3005
79.9717
61.9421
55.051
42.1913
33.2921
27.5544
23.7144
21.0056
18.9727
17.3516
15.9914
14.8024
13.7292
12.7378
11.8118
10.9635
10.4848
12.9922
38.7752
31.6261
33.268
28.8204
24.3244
20.8034
18.1702
16.1939
14.6737
13.4663
12.4768
11.642
10.918
10.2742
9.69327
9.19904
9.13437
11.8633
29.6666
21.914
23.8964
22.1832
19.6721
17.3383
15.4002
13.8454
12.6024
11.5997
10.7812
10.1051
9.54071
9.06619
8.67299
8.40676
8.64396
11.4315
24.9241
17.8565
19.1105
18.3133
16.7746
15.1473
13.6744
12.4192
11.3743
10.5114
9.80095
9.21806
8.74356
8.36485
8.08394
7.96447
8.38037
11.0106
21.4156
15.9014
16.4237
15.8848
14.8237
13.6215
12.4663
11.4339
10.5435
9.78996
9.161
8.6439
8.22855
7.91029
7.70013
7.67227
8.17109
10.5177
18.5355
14.888
14.8361
14.3047
13.4648
12.5125
11.5709
10.7029
9.9337
9.26898
8.70621
8.24059
7.86851
7.59128
7.42625
7.45075
7.96476
9.97589
16.1143
14.3444
13.8752
13.261
12.5069
11.6941
10.8912
10.141
9.46502
8.87188
8.36363
7.93999
7.60148
7.3533
7.21636
7.26517
7.75016
9.42134
14.0809
14.049
13.2901
12.5712
11.8328
11.0904
10.373
9.70381
9.09712
8.56017
8.09617
7.70686
7.3949
7.16759
7.04688
7.10046
7.53041
8.8842
12.3889
13.8884
12.9363
12.1199
11.364
10.6501
9.98124
9.36492
8.80752
8.31305
7.88393
7.52215
7.23105
7.01851
6.90564
6.95105
7.31327
8.38563
10.9975
13.8015
12.7255
11.8301
11.0443
10.3353
9.69046
9.10621
8.58206
8.11834
7.71566
7.37526
7.10011
6.89761
6.78666
6.816
7.10709
7.93879
9.86774
13.7587
12.6126
11.6635
10.8497
10.1344
9.49775
8.92961
8.42473
7.98038
7.59528
7.26947
7.00504
6.80825
6.69529
6.70604
6.93411
7.58196
9.03606
13.7342
12.5436
11.5556
10.717
9.99156
9.356
8.79613
8.30331
7.87227
7.49991
7.18495
6.92832
6.73479
6.61744
6.60769
6.77554
7.26422
8.33538
13.7195
12.4996
11.4826
10.6225
9.88527
9.24664
8.69023
8.20496
7.78347
7.42093
7.1146
6.86396
6.67195
6.54813
6.51553
6.6234
6.9675
7.71552
13.7116
12.4748
11.4391
10.5632
9.81547
9.17218
8.61609
8.13482
7.7195
7.36386
7.06375
6.81715
6.62494
6.49308
6.43685
6.48836
6.70755
7.19554
13.7078
12.4627
11.417
10.5317
9.77703
9.13002
8.57346
8.09438
7.68304
7.33213
7.0363
6.79209
6.59842
6.45785
6.37907
6.38094
6.49798
6.78689
13.7062
12.4577
11.408
10.5188
9.76135
9.11321
8.55733
8.08053
7.67259
7.32547
7.0329
6.79022
6.59464
6.44587
6.34746
6.30873
6.34728
6.49199
13.7054
12.4561
11.4056
10.5164
9.75963
9.11319
8.55999
8.08669
7.68269
7.33944
7.05
6.80879
6.61169
6.4563
6.3425
6.27332
6.2559
6.30284
13.7051
12.4561
11.407
10.5203
9.76683
9.12436
8.57554
8.10675
7.70707
7.36762
7.08098
6.84102
6.64275
6.48242
6.35766
6.26777
6.21399
6.20023
13.7058
12.4598
11.4155
10.5345
9.78691
9.14968
8.60508
8.13928
7.74134
7.4024
7.11512
6.87335
6.67195
6.50673
6.37447
6.27302
6.2013
6.15982
13.7099
12.4736
11.4415
10.5724
9.83424
9.20316
8.66127
8.19516
7.79449
7.45105
7.15809
6.90992
6.70164
6.52911
6.38887
6.27815
6.19493
6.13822
13.7242
12.5174
11.5161
10.6714
9.94828
9.32285
8.77898
8.30532
7.89353
7.53701
7.23025
6.9684
6.7471
6.56243
6.41086
6.28933
6.19526
6.12692
13.7681
12.6386
11.7034
10.8995
10.1918
9.56266
9.00254
8.50561
8.06749
7.68425
7.35203
7.06692
6.82498
6.62235
6.45528
6.32033
6.2144
6.13515
13.8909
12.9373
12.1185
11.3628
10.6531
9.99114
9.38308
8.83428
8.34596
7.91706
7.54493
7.22589
6.95571
6.72991
6.54402
6.3938
6.27537
6.18571
14.2133
13.6132
12.9559
12.2163
11.4438
10.6869
9.97757
9.33289
8.76199
8.26473
7.83749
7.47491
7.17089
6.91914
6.71355
6.54844
6.41875
6.32051
15.0262
15.0573
14.543
13.6931
12.7203
11.7535
10.8583
10.0615
9.36901
8.77966
8.28414
7.87187
7.53237
7.25582
7.03332
6.85702
6.72018
6.61756
17.0704
18.0952
17.4826
16.187
14.74
13.3721
12.1679
11.1445
10.2896
9.58585
9.01309
8.55021
8.17899
7.88393
7.65208
7.47267
7.33687
7.2378
22.5999
24.7677
23.0803
20.5192
18.067
15.9802
14.2862
12.9371
11.8692
11.0272
10.3713
9.8623
9.46969
9.1696
8.94344
8.77671
8.65806
8.57861
40.972
41.3519
35.0444
29.1324
24.5435
21.1125
18.5803
16.7104
15.3195
14.283
13.5262
12.9773
12.5836
12.3073
12.1211
12.0051
11.9443
11.9276
135.949
97.0506
71.6024
54.9015
43.9119
36.6482
31.7989
28.5051
26.2283
24.6648
23.6392
22.9797
22.5792
22.3666
22.2931
22.3239
22.4333
22.6008
31.7469
38.8978
47.5941
53.2161
56.5093
58.0106
58.0866
56.9801
54.8468
51.851
48.605
45.6282
42.854
40.4305
38.6626
37.9244
38.5
40.4062
43.3047
46.5957
49.6125
51.9349
53.5614
54.7953
56.2282
58.8535
62.7136
67.3185
72.5521
78.3796
84.7881
91.7625
99.2804
107.312
115.822
124.772
134.12
143.824
153.843
164.136
174.663
185.385
196.265
207.267
218.354
229.492
240.644
251.777
262.853
273.837
284.691
295.378
305.858
316.091
326.038
335.658
344.912
353.761
362.17
370.109
377.555
384.495
390.933
396.895
402.435
407.302
411.228
414.164
416.048
416.814
416.397
414.735
411.775
407.474
401.803
394.748
386.314
376.527
365.436
353.112
339.653
325.178
309.831
293.774
277.189
260.269
243.213
226.225
209.504
193.239
177.603
162.751
148.812
135.889
124.055
113.353
103.796
95.3688
88.0307
81.7193
76.3562
71.8519
68.1122
65.0433
62.5557
60.5675
59.0056
57.8062
56.9153
56.2957
55.8893
55.639
55.5159
55.4944
55.5515
55.667
55.8236
56.0061
56.2017
56.3996
56.5916
56.772
56.9379
57.09
57.2332
57.3635
57.4519
57.4963
57.4954
57.4487
57.3573
57.2246
57.0591
56.881
56.7378
56.7414
57.1456
58.5137
61.5691
61.6519
61.6823
61.5148
61.1873
60.8776
60.2231
13.8542
13.8855
61.6517
14.4629
14.4335
14.423
14.3975
63.2
14.743
14.5949
14.7394
14.4352
67.3118
67.0296
66.0878
68.8948
68.541
15.2114
15.0876
14.9653
16.0982
15.3436
16.2267
16.3205
16.1802
15.9248
15.5821
15.1587
14.6569
14.0783
13.4259
12.7202
11.991
11.2572
10.5645
58.5122
45.249
40.5129
37.7565
35.8043
34.3217
33.1616
32.2401
31.5069
30.9647
30.7518
30.9662
31.5357
32.5694
34.3003
36.9659
40.6367
45.1816
50.3256
55.7698
61.2611
66.1403
70.6662
74.9979
79.2214
83.3423
87.2678
90.9128
94.2429
97.2605
99.9914
102.474
104.75
106.864
108.855
110.756
112.596
114.397
116.177
117.945
119.71
121.474
123.239
125.001
126.756
128.499
130.224
131.921
133.584
135.204
136.774
138.284
139.727
141.098
142.388
143.595
144.713
145.742
146.683
147.54
148.322
149.042
149.723
150.393
151.087
151.817
152.328
152.573
152.524
152.155
151.443
150.362
148.893
147.016
144.716
141.986
138.819
135.221
131.2
126.776
121.977
116.839
111.406
105.731
99.8736
93.8994
87.8771
81.8777
75.9717
70.2273
64.7076
59.4692
54.5602
50.0185
45.8713
42.1348
38.8135
35.9016
33.3836
31.2359
29.4287
27.9281
26.6983
25.7033
24.9089
24.2835
23.7992
23.4313
23.1589
22.9659
22.8447
22.7618
22.7033
22.6607
22.6275
22.5986
22.5703
22.5399
22.5057
22.467
22.4237
22.377
22.3287
22.2817
22.2399
22.2074
22.172
22.1298
22.0808
22.0252
21.9635
21.8961
21.8236
21.747
21.6687
21.5956
21.5487
21.5843
21.7705
21.7967
21.8049
21.7822
21.7108
21.5581
21.0154
18.6879
18.7684
20.8141
18.5156
18.4356
18.4214
18.5122
20.7523
17.9871
17.5567
16.132
17.451
20.1801
20.0502
19.7225
19.5452
19.1684
14.9854
14.6362
15.5139
13.2115
14.492
12.4642
11.52
11.0344
10.6762
10.3371
9.98396
9.60685
9.20447
8.78255
8.36516
7.98252
7.66419
7.52165
77.2337
53.2444
44.5781
39.9486
36.9878
34.9447
33.5274
32.6193
32.1921
32.2882
32.9771
34.3048
36.3994
39.4296
43.5312
48.7254
54.4769
60.2961
65.8085
70.7399
74.9481
78.3979
81.2063
83.4937
85.3468
86.8236
87.9687
88.8325
89.4739
89.9552
90.3352
90.6647
90.9843
91.3242
91.7045
92.1367
92.6249
93.1683
93.7617
94.3978
95.0679
95.7631
96.4745
97.1943
97.9158
98.6338
99.344
100.044
100.732
101.409
102.074
102.729
103.377
104.02
104.661
105.303
105.949
106.602
107.264
107.938
108.624
109.324
110.036
110.756
111.479
112.151
112.716
113.144
113.412
113.495
113.371
113.014
112.4
111.508
110.318
108.811
106.976
104.803
102.29
99.4415
96.2676
92.7873
89.0268
85.0199
80.8074
76.4364
71.9589
67.4306
62.9088
58.4508
54.1116
49.9422
45.9878
42.2861
38.8664
35.7489
32.9444
30.4547
28.2734
26.3868
24.7754
23.4153
22.2801
21.3421
20.5737
19.9487
19.4433
19.0359
18.7079
18.4427
18.2225
18.0339
17.8683
17.7195
17.5829
17.4551
17.3337
17.2171
17.1044
16.9952
16.8896
16.7882
16.6916
16.6006
16.516
16.4382
16.3627
16.2879
16.2138
16.1403
16.0675
15.9953
15.9234
15.851
15.7772
15.702
15.6288
15.569
15.5361
15.5124
15.4923
15.4665
15.4278
15.3659
15.2352
14.9586
14.9151
15.0052
14.7531
14.6917
14.6379
14.5812
14.6512
14.2293
14.0196
13.684
13.7599
13.8474
13.6695
13.4329
13.1442
12.8772
12.2623
12.0264
11.9002
11.1626
11.1154
10.4305
9.89128
9.49395
9.15628
8.83418
8.50936
8.17499
7.82967
7.47655
7.12598
6.79725
6.50869
6.30344
94.2772
60.9433
49.9946
44.5464
41.2149
38.9967
37.5469
36.7656
36.6731
37.3477
38.7128
40.8631
43.8906
47.8258
52.561
57.8052
63.1016
68.0118
72.2215
75.5764
78.0712
79.8065
80.9382
81.6209
81.9835
82.1283
82.1368
82.0767
82.0023
81.9552
81.964
82.0459
82.2082
82.4504
82.7666
83.1471
83.5799
84.0529
84.5542
85.0729
85.6001
86.1289
86.654
87.1728
87.6841
88.1885
88.6882
89.1866
89.6878
90.1968
90.719
91.26
91.8254
92.4205
93.0503
93.7191
94.4304
95.1867
95.9893
96.8381
97.731
98.6643
99.6316
100.623
101.627
102.603
103.52
104.353
105.078
105.669
106.1
106.343
106.369
106.153
105.666
104.884
103.787
102.356
100.579
98.4509
95.9708
93.1475
89.997
86.5438
82.8205
78.8674
74.7318
70.4663
66.1276
61.7746
57.4662
53.2589
49.2054
45.352
41.7374
38.3914
35.3343
32.5771
30.1214
27.9608
26.0819
24.4657
23.0891
21.9266
20.9516
20.1378
19.4599
18.895
18.4214
18.0179
17.6685
17.3613
17.0875
16.84
16.6136
16.4042
16.2089
16.0253
15.852
15.6879
15.5324
15.385
15.2455
15.1137
14.9896
14.873
14.7619
14.6546
14.5506
14.4498
14.3518
14.2566
14.1636
14.0724
13.9822
13.8927
13.8056
13.7259
13.6596
13.6052
13.5561
13.5081
13.4574
13.4011
13.3313
13.2421
13.1786
13.1246
13.033
12.9617
12.8861
12.7969
12.6987
12.5193
12.3624
12.183
12.0556
11.9028
11.7067
11.4886
11.2424
11.0122
10.7511
10.5316
10.3032
9.94223
9.71342
9.35342
9.00842
8.70042
8.41271
8.1303
7.84504
7.55332
7.25424
6.94917
6.64318
6.34596
6.06971
5.83214
111.089
69.8572
57.194
51.118
47.4836
45.1097
43.6119
42.8898
42.9597
43.6901
45.1509
47.3831
50.3704
54.0065
58.0724
62.2524
66.1963
69.6113
72.3242
74.2941
75.5887
76.3399
76.7002
76.8095
76.7812
76.6997
76.6256
76.5999
76.6479
76.7823
77.0059
77.314
77.697
78.142
78.635
79.1617
79.7089
80.2649
80.8201
81.3675
81.9021
82.4216
82.9256
83.4159
83.8958
84.3702
84.845
85.3272
85.8241
86.3434
86.893
87.4807
88.1137
88.799
89.5425
90.3495
91.2239
92.1683
93.1839
94.27
95.4237
96.6402
97.912
99.2289
100.578
101.927
103.252
104.527
105.728
106.826
107.793
108.598
109.208
109.59
109.711
109.541
109.05
108.211
107.003
105.411
103.423
101.04
98.2657
95.1178
91.6209
87.8095
83.7271
79.425
74.9611
70.398
65.801
61.2355
56.7648
52.4474
48.335
44.4704
40.8868
37.6067
34.6419
31.9945
29.6574
27.6161
25.8505
24.3361
23.0458
21.9518
21.0264
20.2438
19.5763
19.0003
18.4983
18.0563
17.6632
17.3101
16.9898
16.6969
16.4267
16.1759
15.9418
15.7223
15.5157
15.3209
15.1367
14.9623
14.797
14.6403
14.4914
14.3484
14.2099
14.0755
13.9446
13.8171
13.6925
13.5706
13.4511
13.3339
13.2202
13.1126
13.0135
12.9226
12.8368
12.7542
12.6726
12.5908
12.5068
12.4187
12.3321
12.2446
12.1505
12.056
11.9553
11.8431
11.7165
11.565
11.4079
11.2379
11.0641
10.872
10.6607
10.4373
10.2069
9.98382
9.7617
9.54626
9.32447
9.07367
8.85037
8.60034
8.35145
8.11264
7.88
7.64772
7.41164
7.16944
6.92013
6.66385
6.40254
6.14009
5.88448
5.6439
127.486
79.955
65.6928
58.9871
55.0109
52.3974
50.6998
49.79
49.4841
49.8301
50.8658
52.5756
54.8756
57.6069
60.5458
63.4385
66.051
68.2175
69.8653
71.0111
71.7354
72.1503
72.37
72.4933
72.5952
72.7275
72.9225
73.197
73.5563
73.9975
74.5116
75.0865
75.7078
76.3609
77.0318
77.7077
78.378
79.0342
79.6701
80.2821
80.8689
81.4315
81.9728
82.4976
83.0121
83.5236
84.0405
84.5718
85.1269
85.7153
86.3467
87.0301
87.7744
88.5875
89.4766
90.4478
91.5058
92.6538
93.8935
95.2245
96.6441
98.1477
99.7278
101.374
103.074
104.803
106.536
108.251
109.92
111.516
113.006
114.357
115.534
116.497
117.211
117.635
117.734
117.473
116.82
115.749
114.24
112.279
109.863
106.997
103.697
99.9893
95.9125
91.5147
86.8536
81.9949
77.01
71.9734
66.9602
62.0429
57.2886
52.7561
48.4944
44.5406
40.9199
37.6451
34.7179
32.1299
29.8645
27.8989
26.2059
24.7558
23.5182
22.4634
21.5576
20.774
20.0913
19.4923
18.9625
18.4902
18.0656
17.6808
17.3294
17.0062
16.7071
16.4286
16.1679
15.9228
15.6914
15.472
15.2635
15.0647
14.8748
14.6925
14.5156
14.3429
14.1736
14.0074
13.8439
13.6829
13.5243
13.3684
13.2158
13.0681
12.9262
12.7901
12.6586
12.5307
12.4055
12.2822
12.1596
12.0368
11.9138
11.7899
11.6637
11.535
11.4009
11.2585
11.1051
10.938
10.7607
10.5712
10.3701
10.1545
9.92384
9.68315
9.44675
9.21699
8.99346
8.7774
8.56583
8.35483
8.15661
7.95959
7.76803
7.58326
7.40273
7.22265
7.03964
6.85124
6.65576
6.45203
6.23979
6.01946
5.79566
5.57214
142.233
89.6998
74.1471
66.9327
62.6447
59.7475
57.7214
56.2579
55.3715
55.0974
55.4412
56.3596
57.752
59.4666
61.3205
63.1324
64.7548
66.0979
67.1359
67.8972
68.4444
68.8536
69.1972
69.5339
69.9058
70.3387
70.8452
71.4277
72.0816
72.797
73.5616
74.3613
75.182
76.0102
76.8338
77.6423
78.4278
79.1841
79.9079
80.598
81.2554
81.8832
82.4864
83.0714
83.6464
84.2202
84.8027
85.4045
86.0363
86.7091
87.4336
88.2203
89.0791
90.0193
91.049
92.1754
93.4041
94.7393
96.1835
97.7369
99.3979
101.162
103.023
104.971
106.993
109.071
111.184
113.307
115.415
117.48
119.469
121.346
123.074
124.612
125.916
126.943
127.65
127.994
127.933
127.43
126.455
124.98
122.991
120.478
117.447
113.914
109.907
105.469
100.655
95.5293
90.1681
84.6536
79.0721
73.5105
68.0523
62.7747
57.7452
53.019
48.6378
44.6288
41.0054
37.7678
34.9056
32.3988
30.2213
28.3422
26.7284
25.3464
24.1556
23.1253
22.2299
21.4476
20.7599
20.1512
19.6087
19.1213
18.6803
18.2781
17.9088
17.5672
17.2492
16.9513
16.6705
16.4044
16.1509
15.9083
15.6751
15.451
15.2328
15.0186
14.8072
14.598
14.3904
14.1844
13.9798
13.777
13.5766
13.3794
13.1861
12.9968
12.8113
12.6293
12.4504
12.2742
12.1002
11.9277
11.7562
11.5852
11.4137
11.2407
11.0642
10.8823
10.6928
10.4941
10.2856
10.0663
9.83582
9.59322
9.33806
9.07334
8.81917
8.57437
8.33967
8.11717
7.90763
7.71123
7.53106
7.36448
7.21075
7.06813
6.93344
6.80271
6.67206
6.53816
6.39819
6.24959
6.09031
5.9185
5.73594
5.54349
154.543
98.0963
81.5445
73.9503
69.4106
66.1919
63.6495
61.6585
60.2039
59.2973
58.9333
59.0691
59.6189
60.4628
61.4658
62.5026
63.4777
64.337
65.0673
65.6879
66.2362
66.7558
67.2861
67.8573
68.4887
69.1895
69.9605
70.7965
71.6879
72.6224
73.5867
74.5669
75.55
76.5238
77.4779
78.4037
79.2949
80.1472
80.9588
81.73
82.463
83.1622
83.8338
84.4853
85.1257
85.7651
86.4143
87.0848
87.7884
88.537
89.3426
90.2166
91.1699
92.213
93.355
94.6042
95.9674
97.4498
99.0549
100.784
102.637
104.61
106.698
108.892
111.18
113.551
115.984
118.459
120.952
123.436
125.878
128.242
130.491
132.582
134.469
136.103
137.437
138.419
139
139.133
138.773
137.883
136.431
134.395
131.764
128.54
124.739
120.393
115.548
110.266
104.622
98.7023
92.6031
86.424
80.2653
74.2235
68.3869
62.8318
57.6201
52.7972
48.3921
44.4175
40.8714
37.7401
34.9998
32.62
30.5656
28.7992
27.2742
25.9552
24.8116
23.8167
22.9473
22.1832
21.5073
20.9055
20.3655
19.8773
19.4325
19.024
18.646
18.2934
17.962
17.6482
17.3491
17.0621
16.7852
16.5173
16.2564
15.999
15.7435
15.4887
15.2341
14.9794
14.7244
14.4695
14.2153
13.9623
13.7112
13.4624
13.2162
12.9728
12.7323
12.4946
12.2598
12.0275
11.7975
11.5694
11.3426
11.1161
10.8885
10.6582
10.4237
10.1832
9.93559
9.67956
9.41458
9.13992
8.85534
8.56248
8.2835
8.01768
7.76577
7.53062
7.31471
7.11982
6.94769
6.79787
6.66878
6.5577
6.46084
6.37363
6.29134
6.20952
6.12401
6.03084
5.92636
5.80698
5.6723
5.52047
163.564
104.37
87.1506
79.313
74.509
70.9583
68.0961
65.743
63.8614
62.4555
61.5238
61.0381
60.9386
61.1408
61.5501
62.079
62.6603
63.2537
63.8446
64.4379
65.0498
65.6996
66.4044
67.1757
68.0186
68.932
69.9101
70.9434
72.0198
73.1261
74.2489
75.3747
76.4913
77.5876
78.6543
79.6838
80.6707
81.6118
82.5059
83.354
84.159
84.9259
85.6612
86.373
87.0709
87.7655
88.468
89.1908
89.9463
90.7471
91.606
92.5354
93.5471
94.6525
95.8619
97.1845
98.6284
100.2
101.904
103.744
105.719
107.83
110.07
112.434
114.911
117.493
120.167
122.914
125.714
128.541
131.367
134.157
136.873
139.474
141.912
144.139
146.101
147.743
149.008
149.839
150.18
149.981
149.194
147.781
145.713
142.973
139.562
135.494
130.802
125.538
119.771
113.589
107.091
100.386
93.5918
86.8226
80.1891
73.7914
67.7148
62.0274
56.7778
51.9951
47.6906
43.8591
40.4825
37.5326
34.9739
32.7651
30.8546
29.2026
27.7734
26.5345
25.4575
24.5171
23.6917
22.9625
22.3139
21.7326
21.2073
20.7286
20.2884
19.8801
19.4978
19.1367
18.7926
18.4619
18.1419
17.8303
17.5264
17.2258
16.9259
16.625
16.3223
16.0173
15.7098
15.4002
15.0888
14.7764
14.4637
14.1512
13.8396
13.5296
13.2216
12.9161
12.6135
12.3138
12.0173
11.7238
11.4332
11.1447
10.8576
10.5708
10.2829
9.99255
9.69842
9.39927
9.09426
8.78261
8.46407
8.13939
7.83097
7.53935
7.26501
7.01126
6.78158
6.57886
6.40524
6.26126
6.14567
6.05577
5.98758
5.93608
5.89576
5.86104
5.82646
5.7866
5.73632
5.67054
5.58723
5.48182
168.354
107.942
90.462
82.5016
77.6265
74.0102
71.0425
68.5231
66.4056
64.6938
63.3948
62.4977
61.9684
61.7525
61.7862
62.007
62.3641
62.8222
63.3619
63.9765
64.6663
65.4347
66.2842
67.2148
68.2225
69.3004
70.4385
71.6248
72.8461
74.0888
75.3391
76.5843
77.8124
79.0129
80.1768
81.2973
82.3691
83.3893
84.3569
85.2729
86.1404
86.9642
87.7511
88.5092
89.248
89.9783
90.7119
91.461
92.2388
93.0583
93.9329
94.8756
95.8992
97.0159
98.237
99.5729
101.033
102.624
104.354
106.226
108.243
110.406
112.711
115.154
117.727
120.427
123.244
126.165
129.174
132.25
135.367
138.494
141.598
144.638
147.571
150.346
152.91
155.204
157.168
158.737
159.846
160.431
160.431
159.788
158.454
156.394
153.582
150.013
145.701
140.681
135.009
128.766
122.048
114.973
107.668
100.265
92.8962
85.688
78.752
72.1824
66.0521
60.4118
55.2896
50.6938
46.6152
43.0307
39.9074
37.1976
34.8499
32.8196
31.0656
29.55
28.2383
27.0997
26.1073
25.2376
24.4705
23.7889
23.1783
22.6265
22.1228
21.6585
21.226
20.8188
20.4314
20.0591
19.698
19.3445
18.9991
18.6566
18.3135
17.9675
17.6175
17.2627
16.9028
16.538
16.1687
15.7957
15.4197
15.0416
14.6624
14.283
13.9042
13.5269
13.1519
12.7797
12.4108
12.0457
11.6844
11.3269
10.9728
10.6216
10.2725
9.92458
9.57672
9.22779
8.87687
8.52305
8.16596
7.80567
7.46414
7.14261
6.84116
6.56336
6.3134
6.09504
5.91117
5.7632
5.65068
5.5715
5.52193
5.49689
5.49036
5.49577
5.50641
5.51549
5.51643
5.5028
5.47098
5.41471
171.22
109.664
91.8915
83.9251
79.1254
75.5924
72.6797
70.1666
67.9963
66.1703
64.7017
63.5933
62.8307
62.3831
62.209
62.2641
62.5084
62.91
63.4461
64.1021
64.8684
65.7383
66.7051
67.7615
68.8984
70.1047
71.3683
72.6757
74.013
75.3661
76.7214
78.0662
79.3885
80.678
81.9258
83.125
84.2702
85.3582
86.3878
87.3596
88.2763
89.1424
89.9642
90.7496
91.5078
92.2497
92.9866
93.7313
94.4967
95.2965
96.1444
97.054
98.0387
99.1115
100.285
101.57
102.977
104.516
106.194
108.017
109.991
112.116
114.393
116.821
119.392
122.107
124.962
127.949
131.057
134.27
137.567
140.923
144.309
147.69
151.025
154.27
157.372
160.275
162.914
165.223
167.129
168.558
169.436
169.688
169.246
168.051
166.053
163.22
159.539
155.022
149.705
143.651
136.95
129.716
122.082
114.195
106.207
98.2707
90.5249
83.0938
76.0792
69.5575
63.5794
58.1707
53.3355
49.0594
45.3144
42.0499
39.2147
36.7611
34.6429
32.8169
31.2426
29.8832
28.7058
27.6818
26.7859
25.9969
25.2964
24.6688
24.1008
23.581
23.0997
22.6486
22.2206
21.8098
21.4109
21.0198
20.6344
20.2526
19.8689
19.4805
19.0855
18.683
18.2724
17.854
17.4281
16.9954
16.557
16.1137
15.6669
15.2178
14.7675
14.3172
13.868
13.4209
12.9766
12.5359
12.0994
11.6675
11.2405
10.8183
10.4009
9.98797
9.57899
9.17323
8.76989
8.3681
7.96733
7.56719
7.18915
6.83379
6.5009
6.19414
5.91812
5.67726
5.47519
5.31416
5.19474
5.11574
5.07419
5.06536
5.08305
5.12001
5.16839
5.22007
5.2671
5.30179
5.31897
5.31139
172.176
109.946
91.9737
84.0333
79.3664
76.0053
73.2626
70.8917
68.82
67.0414
65.5695
64.4154
63.5779
63.0429
62.7857
62.7759
62.9826
63.3778
63.9381
64.6448
65.4829
66.4395
67.5028
68.6609
69.9014
71.211
72.576
73.982
75.4146
76.8595
78.303
79.732
81.1348
82.5007
83.8206
85.0869
86.294
87.438
88.5171
89.5311
90.4822
91.374
92.2123
93.0043
93.7589
94.4864
95.1981
95.9064
96.6245
97.3662
98.1454
98.9763
99.8729
100.849
101.918
103.091
104.382
105.799
107.353
109.051
110.9
112.904
115.066
117.386
119.861
122.491
125.28
128.223
131.316
134.547
137.902
141.362
144.905
148.502
152.121
155.722
159.259
162.679
165.922
168.92
171.6
173.881
175.678
176.904
177.472
177.297
176.304
174.432
171.635
167.893
163.214
157.636
151.229
144.096
136.37
128.205
119.77
111.239
102.781
94.5529
86.6879
79.2936
72.4475
66.1982
60.5676
55.5543
51.1387
47.2709
43.9017
40.9814
38.4606
36.2907
34.4255
32.8221
31.4413
30.2486
29.2136
28.3098
27.5147
26.8089
26.1758
25.6012
25.073
24.5808
24.1157
23.6702
23.2377
22.8129
22.3919
21.9743
21.5538
21.1264
20.6901
20.2432
19.7854
19.3164
18.8368
18.3472
17.8489
17.3429
16.8308
16.3141
15.7941
15.2722
14.75
14.2284
13.7087
13.1918
12.6785
12.1696
11.6659
11.168
10.6765
10.1921
9.71485
9.24495
8.78209
8.32571
7.87529
7.43047
7.01224
6.61898
6.25043
5.91017
5.60296
5.33358
5.10621
4.92389
4.7882
4.69914
4.65482
4.65134
4.68277
4.74148
4.81869
4.90502
4.9912
5.0683
5.12976
5.16761
171.684
109.166
91.0587
83.1673
78.6677
75.5359
73.0432
70.9138
69.0541
67.4461
66.0988
65.0253
64.2327
63.718
63.469
63.4665
63.6883
64.1113
64.7139
65.4766
66.3822
67.4148
68.5598
69.8026
71.129
72.5244
73.9739
75.4627
76.9759
78.4991
80.0182
81.52
82.9923
84.4241
85.8056
87.1287
88.387
89.5757
90.6921
91.7352
92.7061
93.6076
94.4445
95.2234
95.9525
96.6415
97.3014
97.9444
98.5837
99.2331
99.9069
100.62
101.386
102.22
103.136
104.148
105.268
106.507
107.877
109.386
111.044
112.855
114.826
116.96
119.256
121.715
124.342
127.142
130.11
133.243
136.533
139.967
143.53
147.203
150.961
154.774
158.604
162.408
166.131
169.713
173.082
176.156
178.848
181.059
182.688
183.631
183.786
183.06
181.372
178.666
174.909
170.106
164.297
157.564
150.027
141.839
133.179
124.24
115.22
106.306
97.6675
89.4471
81.7532
74.6622
68.2185
62.4387
57.3156
52.8041
48.8596
45.4332
42.4733
39.9272
37.7433
35.8726
34.2697
32.8938
31.7086
30.6825
29.7879
29.0013
28.3025
27.674
27.101
26.5707
26.0723
25.5963
25.1349
24.6813
24.2298
23.7806
23.3274
22.8655
22.3921
21.9052
21.4042
20.8888
20.3594
19.817
19.2627
18.698
18.1246
17.5441
16.9582
16.3687
15.7771
15.1846
14.5926
14.002
13.4138
12.8288
12.2481
11.6727
11.1039
10.5431
9.99167
9.45072
8.92102
8.40276
7.89581
7.40116
6.93823
6.5025
6.09394
5.71587
5.37286
5.06972
4.8109
4.60002
4.43962
4.3309
4.27334
4.26425
4.29845
4.36834
4.46444
4.57624
4.69318
4.80511
4.90415
4.98187
170.211
107.688
89.481
81.6434
77.3238
74.4511
72.2564
70.432
68.8607
67.5086
66.3757
65.4732
64.8114
64.3946
64.2196
64.2767
64.5515
65.0268
65.6846
66.5071
67.4771
68.578
69.794
71.1096
72.5094
73.978
75.5001
77.0603
78.6435
80.235
81.8204
83.386
84.9192
86.4084
87.843
89.2142
90.5145
91.7383
92.8815
93.9423
94.9205
95.8179
96.6384
97.3876
98.073
98.7037
99.2903
99.8449
100.381
100.911
101.451
102.016
102.621
103.281
104.01
104.824
105.734
106.756
107.899
109.174
110.592
112.16
113.885
115.772
117.824
120.044
122.435
125.006
127.757
130.688
133.798
137.08
140.529
144.131
147.874
151.737
155.694
159.712
163.749
167.754
171.664
175.404
178.887
182.014
184.676
186.753
188.121
188.659
188.249
186.794
184.216
180.477
175.575
169.557
162.519
154.601
145.984
136.874
127.49
118.051
108.764
99.8077
91.325
83.4237
76.1761
69.6215
63.7697
58.5856
54.0332
50.0669
46.6349
43.6825
41.1535
38.993
37.1492
35.5753
34.2288
33.0723
32.073
31.2027
30.4372
29.7554
29.1396
28.5742
28.0462
27.5443
27.0588
26.5817
26.1061
25.6292
25.1479
24.6561
24.1502
23.628
23.0884
22.5312
21.9568
21.3661
20.7606
20.1419
19.512
18.8728
18.2265
17.5747
16.9194
16.2619
15.6034
14.9448
14.287
13.6306
12.9764
12.3256
11.6798
11.0411
10.4118
9.7944
9.19121
8.60372
8.03252
7.4835
6.96982
6.4863
6.03307
5.61292
5.2299
4.88848
4.59304
4.34748
4.15507
4.01815
3.93766
3.91243
3.93845
4.00861
4.11308
4.24037
4.37865
4.51661
4.64504
4.75511
168.406
105.91
87.559
79.7468
75.5962
72.9881
71.1114
69.6251
68.3861
67.3417
66.4806
65.8084
65.3354
65.0699
65.015
65.1686
65.5235
66.0688
66.7913
67.6762
68.708
69.8713
71.1503
72.5294
73.993
75.5253
77.1109
78.7339
80.3792
82.0314
83.6759
85.2987
86.8863
88.4265
89.9078
91.3205
92.6561
93.9076
95.07
96.14
97.1163
97.9997
98.7929
99.5006
100.13
100.688
101.187
101.638
102.054
102.449
102.839
103.238
103.663
104.129
104.653
105.248
105.93
106.712
107.606
108.624
109.775
111.07
112.516
114.12
115.887
117.82
119.923
122.202
124.664
127.311
130.146
133.169
136.38
139.777
143.354
147.103
151.011
155.056
159.213
163.442
167.695
171.91
176.01
179.902
183.477
186.608
189.16
190.986
191.937
191.874
190.673
188.242
184.529
179.534
173.313
165.982
157.708
148.701
139.2
129.444
119.681
110.127
100.958
92.3167
84.307
76.9958
70.4148
64.5451
59.3637
54.8317
50.8997
47.514
44.6157
42.1441
40.0413
38.2546
36.7354
35.44
34.3302
33.373
32.5393
31.8045
31.1474
30.5496
29.9956
29.4719
28.9671
28.4714
27.977
27.4779
26.9733
26.4563
25.9227
25.3698
24.7964
24.2022
23.5875
22.9534
22.3015
21.6339
20.9528
20.2605
19.5594
18.8517
18.1394
17.424
16.7067
15.9883
15.269
14.5491
13.829
13.1093
12.3913
11.6772
10.9702
10.2739
9.59248
8.92946
8.28746
7.67868
7.10714
6.56979
6.06681
5.60026
5.17333
4.78976
4.45346
4.16829
3.93791
3.7656
3.6537
3.60272
3.61019
3.6699
3.77208
3.90452
4.05419
4.20859
4.35725
4.4904
166.078
103.868
85.4045
77.6184
73.6354
71.2963
69.7507
68.6242
67.7468
67.0457
66.4961
66.0961
65.8534
65.7778
65.8771
66.155
66.6111
67.2406
68.0357
68.9857
70.0784
71.3002
72.6367
74.0729
75.5936
77.1833
78.8262
80.5066
82.2089
83.9175
85.6173
87.2936
88.9324
90.5205
92.0456
93.4968
94.8643
96.14
97.3175
98.3923
99.3617
100.225
100.985
101.644
102.208
102.686
103.088
103.425
103.711
103.96
104.188
104.412
104.646
104.909
105.217
105.585
106.028
106.56
107.194
107.942
108.814
109.82
110.968
112.265
113.719
115.336
117.114
119.061
121.182
123.484
125.97
128.648
131.522
134.598
137.879
141.366
145.058
148.949
153.027
157.269
161.645
166.11
170.603
175.046
179.339
183.363
186.978
190.024
192.329
193.718
194.021
193.09
190.813
187.129
182.043
175.628
168.025
159.432
150.105
140.283
130.261
120.296
110.589
101.315
92.6137
84.5846
77.2858
70.7233
64.8936
59.7692
55.3044
51.453
48.1573
45.3486
42.9636
40.9449
39.2378
37.7917
36.5628
35.5125
34.6071
33.8176
33.1191
32.4901
31.9123
31.3698
30.8494
30.3394
29.8304
29.314
28.7899
28.2513
27.6936
27.1136
26.51
25.8822
25.2307
24.5567
23.8622
23.1494
22.4211
21.68
20.9289
20.1705
19.4071
18.6405
17.8719
17.1019
16.3304
15.5568
14.7807
14.0016
13.2199
12.4373
11.6568
10.8829
10.1214
9.37825
8.66286
7.98607
7.34881
6.7507
6.19219
5.67458
5.19988
4.77071
4.3901
4.06142
3.78839
3.57494
3.42463
3.33962
3.31917
3.35844
3.44812
3.57557
3.72671
3.88788
4.04735
4.19454
163.253
101.783
83.3436
75.6209
71.8016
69.7099
68.4677
67.6736
67.1347
66.7602
66.512
66.3805
66.3696
66.4888
66.7484
67.1565
67.7178
68.4329
69.299
70.3098
71.4565
72.7283
74.1126
75.5958
77.1636
78.8007
80.4917
82.2209
83.9725
85.7306
87.4796
89.2042
90.8897
92.5221
94.088
95.5754
96.9735
98.2727
99.4655
100.546
101.51
102.356
103.085
103.699
104.205
104.608
104.92
105.152
105.317
105.431
105.509
105.57
105.629
105.704
105.813
105.971
106.194
106.495
106.888
107.383
107.992
108.722
109.581
110.578
111.719
113.012
114.454
116.049
117.803
119.721
121.811
124.083
126.546
129.209
132.085
135.184
138.514
142.081
145.888
149.929
154.192
158.652
163.269
167.985
172.721
177.373
181.811
185.876
189.387
192.143
193.936
194.565
193.856
191.68
187.975
182.755
176.124
168.242
159.408
149.857
139.868
129.717
119.652
109.89
100.61
91.9459
83.986
76.7696
70.3172
64.6171
59.6351
55.3236
51.6234
48.4671
45.7865
43.5253
41.6224
40.019
38.6661
37.5201
36.5418
35.6977
34.9593
34.3016
33.7033
33.1463
32.6149
32.0959
31.5781
31.0517
30.5134
29.9587
29.3824
28.7809
28.1526
27.4968
26.8141
26.1058
25.3741
24.6218
23.8519
23.0678
22.2729
21.4704
20.6631
19.8533
19.0424
18.2309
17.4182
16.6031
15.7843
14.9597
14.1276
13.2891
12.4457
11.6017
10.7637
9.9438
9.15331
8.40055
7.6901
7.02424
6.40421
5.83078
5.30472
4.82714
4.39972
4.02489
3.706
3.44726
3.2532
3.12749
3.07121
3.0811
3.14881
3.2616
3.40458
3.56301
3.72395
3.87615
160.091
99.7769
81.5356
73.9418
70.2949
68.4274
67.4484
66.9391
66.6899
66.5963
66.6101
66.7145
66.9098
67.2046
67.6102
68.1376
68.7952
69.5878
70.5168
71.5797
72.771
74.0827
75.5044
77.0239
78.628
80.3022
82.0315
83.8002
85.5925
87.3922
89.1835
90.9505
92.6776
94.3502
95.9539
97.4757
98.9036
100.227
101.437
102.526
103.49
104.325
105.032
105.611
106.069
106.412
106.649
106.792
106.856
106.855
106.808
106.73
106.641
106.558
106.499
106.48
106.518
106.626
106.816
107.099
107.484
107.98
108.592
109.328
110.193
111.194
112.329
113.598
115.005
116.557
118.262
120.131
122.176
124.41
126.851
129.514
132.416
135.572
138.995
142.695
146.673
150.923
155.426
160.145
165.026
169.988
174.919
179.676
184.083
187.932
190.992
193.022
193.794
193.112
190.845
186.936
181.475
174.595
166.512
157.47
147.753
137.652
127.447
117.391
107.7
98.5469
90.045
82.2746
75.2798
69.0669
63.6136
58.8775
54.8019
51.3212
48.3674
45.8758
43.7814
42.0223