/*--------------------------------*- C++ -*----------------------------------*\
  =========                 |
  \\      /  F ield         | OpenFOAM: The Open Source CFD Toolbox
   \\    /   O peration     | Website:  https://openfoam.org
    \\  /    A nd           | Version:  9
     \\/     M anipulation  |
\*---------------------------------------------------------------------------*/
FoamFile
{
    format      ascii;
    class       volScalarField;
    location    "0.14";
    object      k;
}
// * * * * * * * * * * * * * * * * * * * * * * * * * * * * * * * * * * * * * //

dimensions      [0 2 -2 0 0 0 0];

internalField   nonuniform List<scalar> 
12225
(
0.266561
0.160574
0.10404
0.0743573
0.0583221
0.0489489
0.0427794
0.0382067
0.034521
0.0314081
0.0287186
0.0263739
0.0243337
0.0225965
0.0212545
0.0209259
0.0263801
0.0970217
0.335172
0.250188
0.19666
0.164765
0.144566
0.130551
0.119922
0.111272
0.10389
0.0973981
0.0915746
0.0862852
0.0814617
0.0771234
0.0735073
0.072258
0.0821736
0.159257
0.345335
0.285871
0.239603
0.206801
0.183404
0.166101
0.152675
0.141765
0.132581
0.124665
0.117748
0.111665
0.106325
0.101745
0.0982705
0.0981558
0.11231
0.186911
0.350183
0.304946
0.265442
0.234224
0.210054
0.191174
0.176074
0.163655
0.153191
0.144229
0.13649
0.12981
0.124111
0.119443
0.116289
0.117235
0.133126
0.200726
0.353205
0.316576
0.282536
0.253716
0.230061
0.21074
0.194815
0.181484
0.17016
0.160445
0.152085
0.144937
0.138951
0.134229
0.131371
0.133027
0.148933
0.207574
0.355233
0.324219
0.294482
0.268148
0.245602
0.226524
0.210371
0.196599
0.184767
0.174556
0.165758
0.158261
0.15205
0.147277
0.14461
0.146563
0.161348
0.210691
0.356644
0.329479
0.303111
0.279082
0.257873
0.239425
0.223447
0.20959
0.197542
0.187063
0.177996
0.170266
0.163891
0.159061
0.156461
0.158347
0.171364
0.211867
0.357642
0.333198
0.309465
0.287468
0.267635
0.250018
0.234475
0.220793
0.208759
0.198208
0.189027
0.181176
0.174699
0.169811
0.16717
0.168715
0.179671
0.212184
0.358351
0.335858
0.314185
0.293932
0.275414
0.258711
0.24376
0.230433
0.218595
0.208132
0.198975
0.191108
0.184595
0.179657
0.176897
0.177929
0.186771
0.212323
0.358852
0.337765
0.317692
0.298907
0.281594
0.265814
0.251537
0.238687
0.227176
0.216934
0.207917
0.200131
0.19365
0.188683
0.185765
0.186202
0.193032
0.212693
0.359203
0.339125
0.320282
0.30271
0.286468
0.271573
0.258001
0.245699
0.234611
0.22469
0.215912
0.208295
0.201911
0.196953
0.193872
0.193706
0.19872
0.213519
0.359426
0.340003
0.322016
0.305346
0.289953
0.27581
0.262878
0.251112
0.240466
0.230908
0.222422
0.215028
0.208792
0.203883
0.200678
0.2
0.203571
0.214761
0.359586
0.340643
0.323317
0.307385
0.292729
0.279272
0.266958
0.255737
0.245568
0.236422
0.228287
0.22118
0.215155
0.210354
0.207079
0.20597
0.208305
0.216497
0.359709
0.341145
0.324374
0.3091
0.295138
0.282366
0.270702
0.260082
0.250463
0.241812
0.234114
0.227377
0.22164
0.217007
0.213709
0.212211
0.213415
0.218963
0.359797
0.341509
0.325168
0.310439
0.297092
0.284966
0.273947
0.263958
0.25494
0.246853
0.239671
0.233388
0.22802
0.223634
0.220385
0.218589
0.218842
0.222198
0.359852
0.341749
0.325713
0.3114
0.298556
0.286992
0.276572
0.267199
0.258797
0.251311
0.244701
0.238937
0.234014
0.229957
0.226852
0.22489
0.224431
0.226105
0.359883
0.341888
0.326047
0.312022
0.299551
0.288434
0.27852
0.269695
0.261868
0.254968
0.248933
0.243715
0.23928
0.235615
0.232748
0.230769
0.229865
0.230377
0.359894
0.341952
0.326219
0.312366
0.300135
0.289326
0.279782
0.271379
0.264018
0.25761
0.252079
0.247358
0.243386
0.240123
0.237546
0.235673
0.234573
0.234394
0.359886
0.341948
0.326242
0.312445
0.300307
0.289632
0.280265
0.272084
0.264984
0.258872
0.253664
0.249279
0.245644
0.242692
0.240373
0.238654
0.237526
0.237025
0.359855
0.341842
0.326028
0.312097
0.299807
0.288974
0.27946
0.271153
0.263957
0.257786
0.252556
0.248187
0.244599
0.241718
0.239477
0.237821
0.236705
0.236112
0.35979
0.341595
0.325505
0.311222
0.298533
0.287285
0.277363
0.268677
0.261142
0.254682
0.249217
0.244666
0.240947
0.237982
0.235694
0.234015
0.232881
0.232246
0.359657
0.341067
0.3244
0.309424
0.295998
0.284025
0.273426
0.264132
0.256068
0.24916
0.243327
0.238484
0.234544
0.231419
0.229024
0.227277
0.226104
0.225436
0.3594
0.340043
0.322328
0.306196
0.291637
0.278628
0.267126
0.257065
0.248367
0.240948
0.234712
0.229561
0.225394
0.22211
0.219611
0.217804
0.216599
0.215916
0.358936
0.338213
0.318792
0.300934
0.284816
0.270503
0.257962
0.247088
0.23777
0.229889
0.223322
0.217943
0.213628
0.210259
0.207721
0.205907
0.204716
0.204052
0.358152
0.33513
0.313113
0.292896
0.274851
0.25906
0.245446
0.233863
0.22408
0.215916
0.209198
0.203763
0.199457
0.196137
0.193672
0.191941
0.190833
0.190242
0.35689
0.330098
0.304292
0.281034
0.260809
0.243579
0.22909
0.217031
0.207103
0.198966
0.192381
0.187139
0.183053
0.179959
0.177707
0.176169
0.175226
0.174768
0.354914
0.321862
0.290637
0.263698
0.241302
0.222992
0.208132
0.196128
0.186503
0.178823
0.172736
0.167988
0.164365
0.161686
0.159795
0.15856
0.157865
0.157599
0.351844
0.307766
0.268863
0.237923
0.213948
0.19546
0.181153
0.170021
0.16135
0.154649
0.149473
0.14554
0.142626
0.140549
0.139159
0.13833
0.137956
0.137938
0.345432
0.280339
0.231526
0.197473
0.173632
0.156626
0.144226
0.135008
0.128074
0.122896
0.119047
0.116254
0.114299
0.113014
0.112265
0.111949
0.111978
0.112278
0.300149
0.214269
0.158085
0.12121
0.0969378
0.0808801
0.0701386
0.0628175
0.0577294
0.0541882
0.0518355
0.0502962
0.049337
0.0488034
0.0485878
0.0486132
0.0488215
0.0491664
0.104709
0.138334
0.158992
0.171751
0.179128
0.182595
0.183038
0.180988
0.176737
0.170533
0.163409
0.156774
0.15045
0.14476
0.140433
0.138425
0.139511
0.143793
0.150468
0.158112
0.165232
0.170799
0.174739
0.177615
0.180514
0.18532
0.192919
0.201986
0.212135
0.223207
0.235119
0.247795
0.261148
0.275088
0.289522
0.304357
0.319505
0.334884
0.350419
0.366043
0.381696
0.397324
0.41288
0.428321
0.443607
0.458702
0.473573
0.488187
0.502513
0.51652
0.530178
0.543456
0.556323
0.568747
0.580698
0.592144
0.603056
0.613405
0.623164
0.632313
0.640837
0.648732
0.656009
0.662699
0.66886
0.674444
0.678989
0.682457
0.684797
0.685943
0.685828
0.684384
0.681545
0.677252
0.671452
0.664106
0.655183
0.64467
0.632572
0.618912
0.603736
0.587114
0.569139
0.54993
0.529631
0.508407
0.486448
0.46396
0.441163
0.41829
0.395578
0.373263
0.351575
0.330734
0.310938
0.292363
0.275154
0.259417
0.24522
0.232587
0.221498
0.211896
0.203692
0.196772
0.191012
0.186282
0.182456
0.179416
0.177053
0.17528
0.174031
0.17314
0.172547
0.172193
0.172028
0.172007
0.17209
0.172244
0.172438
0.172649
0.172857
0.173047
0.17321
0.173345
0.173456
0.17356
0.1736
0.173556
0.173423
0.173202
0.172898
0.172523
0.172106
0.171708
0.171457
0.171584
0.172462
0.174438
0.176882
0.176416
0.175877
0.175032
0.174076
0.173297
0.173365
0.179276
0.179277
0.178001
0.183991
0.183378
0.182582
0.181102
0.17492
0.18407
0.182767
0.187194
0.179025
0.173059
0.172325
0.171509
0.175098
0.175329
0.183591
0.182189
0.177198
0.187839
0.179831
0.18704
0.188261
0.186325
0.18278
0.178184
0.17272
0.16645
0.159402
0.15159
0.143164
0.134491
0.125752
0.117432
0.195256
0.251127
0.284141
0.303891
0.31485
0.319877
0.320803
0.318828
0.314762
0.309263
0.303157
0.296775
0.292372
0.292601
0.299918
0.315576
0.338706
0.366652
0.396081
0.424172
0.449207
0.469078
0.485651
0.500281
0.513796
0.526544
0.538618
0.550051
0.56089
0.571221
0.581179
0.590922
0.600605
0.610375
0.620356
0.630648
0.641331
0.652458
0.664066
0.676174
0.688789
0.701907
0.715517
0.729603
0.744145
0.75912
0.774505
0.790274
0.806399
0.822851
0.839599
0.856607
0.87384
0.891253
0.908801
0.926428
0.944075
0.961673
0.979148
0.996413
1.01338
1.02994
1.04599
1.06141
1.07611
1.08963
1.10213
1.11347
1.12349
1.13201
1.13884
1.14381
1.1467
1.14734
1.14555
1.14116
1.13402
1.12401
1.11104
1.09506
1.07604
1.05403
1.02911
1.00142
0.971149
0.938543
0.903901
0.867568
0.829928
0.791395
0.752405
0.713402
0.674829
0.63711
0.600646
0.565797
0.532878
0.502148
0.473805
0.447981
0.424738
0.404071
0.38591
0.370129
0.356556
0.344992
0.335219
0.327021
0.320188
0.314482
0.309606
0.30551
0.302091
0.299244
0.296876
0.294908
0.29327
0.291906
0.290765
0.289809
0.289003
0.288318
0.287732
0.287227
0.286787
0.286406
0.286066
0.285742
0.285429
0.285124
0.284829
0.284551
0.284301
0.284096
0.283953
0.283867
0.283767
0.283427
0.282527
0.282259
0.281967
0.281654
0.281366
0.281192
0.28145
0.282749
0.282046
0.279266
0.28106
0.280351
0.279409
0.278072
0.274538
0.276157
0.274514
0.272217
0.269701
0.264374
0.261249
0.258076
0.255697
0.252512
0.251035
0.247238
0.243644
0.241167
0.237025
0.234109
0.230766
0.226228
0.220736
0.214478
0.207538
0.199944
0.191708
0.182847
0.173361
0.163612
0.154093
0.146264
0.259143
0.317845
0.355652
0.379412
0.393578
0.401142
0.40424
0.404532
0.403438
0.402382
0.402171
0.403759
0.409566
0.422103
0.443027
0.472279
0.506096
0.540389
0.572027
0.599075
0.620923
0.637966
0.651415
0.66247
0.672041
0.680754
0.689061
0.697319
0.705823
0.714823
0.724521
0.735065
0.746548
0.75901
0.772445
0.786812
0.802039
0.818036
0.834702
0.851937
0.86964
0.887721
0.906099
0.924708
0.943492
0.962412
0.981436
1.00055
1.01973
1.03899
1.05831
1.07771
1.09717
1.11671
1.13631
1.15597
1.17566
1.19535
1.21501
1.23459
1.25402
1.27324
1.29214
1.31063
1.3286
1.34581
1.36215
1.37744
1.39147
1.404
1.4148
1.4236
1.43014
1.43417
1.43542
1.43365
1.42863
1.42017
1.4081
1.39231
1.3727
1.34929
1.3221
1.29125
1.25694
1.21942
1.17901
1.13611
1.09117
1.04469
0.997198
0.949255
0.90142
0.85424
0.808234
0.763881
0.721598
0.68174
0.644586
0.610336
0.579112
0.550956
0.525835
0.50365
0.484244
0.467413
0.452922
0.440517
0.429944
0.420811
0.412943
0.406168
0.400329
0.395282
0.390902
0.387082
0.383728
0.380764
0.378123
0.375752
0.373604
0.371644
0.369842
0.368172
0.366617
0.36516
0.363803
0.3625
0.361236
0.360005
0.358805
0.35764
0.356513
0.355431
0.354393
0.353383
0.352358
0.351251
0.350073
0.349101
0.348186
0.347297
0.346434
0.345631
0.344958
0.344415
0.343361
0.34181
0.341106
0.33985
0.338398
0.336655
0.334234
0.332544
0.330067
0.327156
0.323726
0.319205
0.314847
0.310302
0.305634
0.300846
0.296545
0.291306
0.285811
0.2802
0.274751
0.268889
0.263035
0.256737
0.249901
0.242524
0.234602
0.226124
0.217078
0.20746
0.197263
0.186523
0.175598
0.165182
0.31742
0.382707
0.426475
0.453812
0.470106
0.478978
0.483111
0.484732
0.485877
0.488446
0.492566
0.500291
0.513517
0.533449
0.559926
0.591119
0.623878
0.655041
0.682345
0.704757
0.722382
0.736094
0.747115
0.756624
0.765571
0.774653
0.784359
0.795021
0.806847
0.819941
0.834324
0.849949
0.866714
0.884484
0.903099
0.922388
0.942186
0.962333
0.982689
1.00313
1.02357
1.04392
1.06415
1.08421
1.1041
1.12383
1.14341
1.16289
1.1823
1.20168
1.22108
1.24055
1.26013
1.27986
1.29977
1.31989
1.34022
1.36077
1.38153
1.40246
1.42353
1.44467
1.46581
1.48682
1.5076
1.52792
1.5476
1.56643
1.58416
1.60053
1.61525
1.62801
1.63851
1.64643
1.65144
1.65325
1.65156
1.6461
1.63665
1.62301
1.60503
1.58265
1.55586
1.52472
1.48938
1.45006
1.40709
1.36086
1.31183
1.26054
1.20758
1.15357
1.09916
1.04499
0.991678
0.939806
0.8899
0.842412
0.797713
0.756086
0.717723
0.682729
0.651124
0.622851
0.597782
0.575734
0.556478
0.539753
0.525237
0.512557
0.501495
0.491839
0.483392
0.475977
0.469437
0.463636
0.458454
0.453792
0.449563
0.445697
0.442132
0.43882
0.43572
0.432797
0.430023
0.427374
0.424867
0.422443
0.420074
0.417747
0.415454
0.413195
0.410971
0.408781
0.406623
0.404486
0.402361
0.400248
0.398186
0.396232
0.394338
0.392495
0.390693
0.388941
0.387246
0.385559
0.383714
0.381747
0.379889
0.377844
0.375637
0.373202
0.370433
0.367546
0.364255
0.360583
0.356386
0.35161
0.346383
0.34087
0.335215
0.3294
0.323562
0.317386
0.311021
0.304545
0.298047
0.291375
0.284573
0.277486
0.270042
0.26219
0.25389
0.245105
0.235806
0.225962
0.215544
0.20448
0.192993
0.18147
0.374928
0.450897
0.501362
0.53273
0.551418
0.561673
0.566716
0.569284
0.571869
0.57478
0.580154
0.589724
0.604602
0.624959
0.649824
0.677248
0.70484
0.7305
0.752924
0.771745
0.787382
0.800724
0.812811
0.824586
0.836783
0.849903
0.864242
0.879939
0.897011
0.915385
0.934924
0.95545
0.976764
0.998656
1.02092
1.04338
1.06585
1.0882
1.11031
1.1321
1.1535
1.17449
1.19506
1.21522
1.23502
1.2545
1.27373
1.29277
1.31172
1.33064
1.34963
1.36876
1.38811
1.40776
1.42775
1.44815
1.46899
1.49029
1.51205
1.53427
1.5569
1.57989
1.60315
1.62657
1.65002
1.6733
1.69621
1.71852
1.73994
1.76021
1.77899
1.79597
1.81078
1.82308
1.83249
1.83865
1.84122
1.83987
1.83429
1.82422
1.80946
1.78985
1.7653
1.73582
1.70149
1.66247
1.61904
1.57155
1.52046
1.4663
1.40967
1.35124
1.29171
1.2318
1.17222
1.11365
1.05674
1.00205
0.950057
0.901149
0.855613
0.813638
0.775315
0.740647
0.709555
0.68189
0.657447
0.635984
0.617097
0.600471
0.585842
0.572965
0.561612
0.551571
0.542652
0.534687
0.527527
0.521043
0.515126
0.509682
0.504629
0.499902
0.495443
0.491207
0.487153
0.48325
0.479496
0.475861
0.472289
0.468755
0.465247
0.461757
0.458284
0.454826
0.451384
0.447956
0.444547
0.441176
0.437867
0.434636
0.431468
0.428363
0.425316
0.422328
0.419394
0.416479
0.413532
0.410567
0.407602
0.404544
0.401368
0.398018
0.39444
0.390622
0.386467
0.381941
0.376967
0.371511
0.365497
0.359122
0.352669
0.346067
0.33935
0.332503
0.325586
0.31863
0.311652
0.304646
0.297548
0.290274
0.28276
0.27494
0.266752
0.258144
0.249064
0.239459
0.229271
0.218389
0.206907
0.19512
0.431241
0.517842
0.576341
0.613139
0.635345
0.647724
0.653914
0.657014
0.657972
0.659285
0.663097
0.670892
0.683354
0.700268
0.720588
0.742739
0.765074
0.7863
0.805731
0.82331
0.839456
0.854837
0.870159
0.886019
0.902842
0.920871
0.940195
0.960784
0.982525
1.00525
1.02874
1.0528
1.07719
1.10172
1.12618
1.15041
1.17428
1.19766
1.22049
1.2427
1.26427
1.28522
1.30557
1.32537
1.34468
1.36359
1.38219
1.40059
1.4189
1.43722
1.45568
1.47437
1.4934
1.51287
1.53286
1.55345
1.57468
1.59661
1.61924
1.64257
1.66658
1.69121
1.71638
1.74197
1.76783
1.79383
1.81973
1.8453
1.87027
1.89433
1.91715
1.9384
1.95768
1.97462
1.98882
1.99986
2.00735
2.01091
2.01017
2.0048
1.99451
1.97906
1.95829
1.9321
1.90049
1.86354
1.82145
1.7745
1.7231
1.66774
1.60903
1.54762
1.48425
1.4197
1.35477
1.29023
1.22684
1.16528
1.10616
1.04999
0.997171
0.948
0.902661
0.861235
0.82371
0.789988
0.759902
0.733229
0.709552
0.688563
0.66998
0.653534
0.638966
0.626033
0.614509
0.604192
0.594899
0.586472
0.578768
0.571669
0.565068
0.558877
0.553019
0.547431
0.542059
0.536859
0.531804
0.526894
0.522051
0.517234
0.51242
0.507596
0.502755
0.497898
0.493024
0.48814
0.483257
0.478395
0.473575
0.468807
0.464094
0.459444
0.454862
0.45035
0.445906
0.441516
0.437161
0.432841
0.428541
0.424216
0.419831
0.41534
0.410695
0.405844
0.400715
0.395257
0.389419
0.383151
0.376353
0.369145
0.361934
0.354632
0.347254
0.339855
0.33249
0.325189
0.317968
0.310843
0.303748
0.296608
0.289354
0.281905
0.274183
0.266114
0.257625
0.248636
0.23906
0.228774
0.217758
0.206266
0.482226
0.580032
0.64719
0.690244
0.716755
0.731844
0.73934
0.741014
0.739999
0.738975
0.740016
0.744511
0.75307
0.765526
0.781094
0.798669
0.817161
0.835763
0.854071
0.872068
0.890008
0.908265
0.927211
0.947131
0.968189
0.990431
1.0138
1.03817
1.06335
1.08916
1.11535
1.14172
1.16806
1.19417
1.21989
1.24507
1.2696
1.29341
1.31642
1.33862
1.36002
1.38063
1.40051
1.41974
1.4384
1.4566
1.47446
1.4921
1.50966
1.52728
1.54508
1.56321
1.58178
1.60091
1.62071
1.64127
1.66266
1.68494
1.70813
1.73225
1.75728
1.78316
1.80983
1.83715
1.86501
1.89327
1.92173
1.95016
1.9783
2.00584
2.03245
2.05779
2.08146
2.10306
2.12217
2.13835
2.15117
2.1602
2.165
2.16519
2.16038
2.15027
2.13459
2.11314
2.0858
2.05257
2.01353
1.96887
1.91891
1.86407
1.8049
1.74205
1.67626
1.60834
1.53913
1.46952
1.40035
1.33244
1.26654
1.20329
1.14323
1.08678
1.03424
0.985803
0.941526
0.901387
0.865271
0.832988
0.804127
0.778393
0.755499
0.735157
0.717084
0.701006
0.686665
0.673821
0.662256
0.651775
0.642204
0.633391
0.625203
0.617523
0.610252
0.603304
0.596608
0.590101
0.583731
0.577517
0.571371
0.565231
0.559062
0.552841
0.546557
0.540208
0.533793
0.527322
0.52081
0.514277
0.507743
0.501224
0.494736
0.488296
0.481916
0.47561
0.469385
0.463242
0.45718
0.451202
0.445294
0.43943
0.433581
0.42771
0.421771
0.415712
0.409462
0.402964
0.396169
0.389008
0.381398
0.373364
0.365398
0.357419
0.349437
0.34152
0.333736
0.326132
0.318739
0.311581
0.304607
0.297746
0.290922
0.284041
0.277007
0.269723
0.262091
0.254003
0.245341
0.235964
0.225795
0.215013
0.525473
0.633542
0.709012
0.758473
0.78972
0.807597
0.815263
0.816498
0.814432
0.811686
0.81033
0.811798
0.816828
0.825492
0.837355
0.851718
0.867862
0.885227
0.903494
0.922566
0.942498
0.963411
0.985416
1.00857
1.03287
1.05822
1.08449
1.1115
1.13903
1.16687
1.19481
1.22263
1.25015
1.27717
1.30357
1.32921
1.354
1.37787
1.40078
1.42273
1.44373
1.46384
1.4831
1.50163
1.51951
1.53688
1.55387
1.57063
1.5873
1.60404
1.62101
1.63835
1.65622
1.67474
1.69404
1.71422
1.73538
1.75759
1.78089
1.80529
1.8308
1.85738
1.88495
1.91342
1.94264
1.97254
2.00294
2.03363
2.06435
2.09482
2.12474
2.15374
2.18145
2.20747
2.23135
2.25267
2.27094
2.28571
2.29649
2.30284
2.3043
2.30048
2.29101
2.27558
2.25396
2.22602
2.1917
2.15109
2.10436
2.05186
1.99404
1.93148
1.8649
1.7951
1.72298
1.64946
1.57551
1.50205
1.42998
1.36008
1.29305
1.22945
1.16973
1.11417
1.06297
1.01618
0.973754
0.93555
0.901182
0.870383
0.84287
0.818348
0.796515
0.77707
0.759723
0.744198
0.730242
0.71762
0.706123
0.695563
0.685773
0.676608
0.667939
0.659655
0.651663
0.64388
0.636238
0.628716
0.621273
0.613814
0.606284
0.598653
0.590899
0.583016
0.575002
0.566867
0.558627
0.550302
0.541916
0.533491
0.525051
0.516623
0.508232
0.499901
0.491651
0.483498
0.475457
0.467539
0.459748
0.452073
0.444497
0.436995
0.429534
0.422065
0.414524
0.406851
0.398989
0.39086
0.382383
0.373527
0.364793
0.356134
0.347548
0.339106
0.330888
0.322962
0.315385
0.308187
0.301341
0.294785
0.288441
0.282206
0.275969
0.26961
0.263001
0.256005
0.248472
0.240239
0.231198
0.221432
0.558632
0.675405
0.7582
0.813583
0.848708
0.868861
0.878377
0.880802
0.879177
0.876093
0.873645
0.873362
0.876162
0.882389
0.891931
0.904401
0.919326
0.936278
0.954946
0.975137
0.996748
1.01972
1.04398
1.06945
1.096
1.12348
1.1517
1.18044
1.20949
1.23863
1.26764
1.29633
1.32451
1.35202
1.37871
1.40449
1.42926
1.45297
1.47559
1.49712
1.51759
1.53705
1.55557
1.57327
1.59024
1.60664
1.6226
1.63829
1.65387
1.66951
1.68538
1.70165
1.71848
1.73601
1.75439
1.77374
1.79417
1.81577
1.83858
1.86265
1.88798
1.91456
1.94232
1.97119
2.00103
2.0318
2.06335
2.09551
2.12805
2.16072
2.19322
2.22524
2.2564
2.28632
2.31457
2.34071
2.36426
2.38474
2.40165
2.41447
2.4227
2.42586
2.4235
2.41519
2.40057
2.37937
2.3514
2.31657
2.27494
2.22668
2.17214
2.1118
2.0463
1.9764
1.90299
1.82705
1.74961
1.67171
1.59437
1.51854
1.44507
1.37469
1.30799
1.24542
1.18728
1.13375
1.08486
1.04053
1.00042
0.964317
0.931943
0.90301
0.877206
0.854209
0.8337
0.815372
0.79893
0.784105
0.770646
0.758329
0.74695
0.736328
0.726306
0.716742
0.707515
0.69852
0.68967
0.680898
0.672207
0.663475
0.654627
0.645619
0.63642
0.627015
0.617402
0.607587
0.597584
0.587415
0.577107
0.566686
0.556186
0.545642
0.535087
0.52456
0.514092
0.503717
0.493465
0.483364
0.473434
0.463686
0.454123
0.444737
0.435511
0.426412
0.417387
0.408378
0.399321
0.390131
0.380722
0.371025
0.36151
0.35216
0.342953
0.333955
0.32526
0.316958
0.309128
0.301819
0.295029
0.288716
0.282806
0.277197
0.271766
0.266372
0.26086
0.255058
0.248784
0.241846
0.234119
0.225584
0.579882
0.703866
0.792346
0.852177
0.891321
0.915218
0.928005
0.933104
0.933465
0.931626
0.929682
0.929232
0.931347
0.936596
0.945123
0.956784
0.971284
0.988285
1.00748
1.02862
1.05149
1.07592
1.10174
1.12876
1.15681
1.18568
1.21514
1.24498
1.27496
1.30487
1.33451
1.36366
1.39216
1.41986
1.4466
1.4723
1.49687
1.52026
1.54243
1.56341
1.58321
1.6019
1.61956
1.63628
1.6522
1.66746
1.68221
1.69662
1.71087
1.72513
1.73959
1.75444
1.76983
1.78595
1.80294
1.82094
1.84008
1.86045
1.88213
1.90518
1.92961
1.95543
1.98259
2.01104
2.04067
2.07144
2.10326
2.13599
2.16945
2.20341
2.23762
2.27178
2.30557
2.33863
2.37056
2.40093
2.42928
2.45512
2.47795
2.49722
2.51239
2.52292
2.52825
2.52788
2.52131
2.50812
2.48797
2.4606
2.42588
2.38382
2.33459
2.27853
2.21616
2.14815
2.07536
1.99876
1.91943
1.83849
1.75708
1.67631
1.5972
1.52065
1.44742
1.37814
1.31324
1.25304
1.1977
1.14713
1.10116
1.05959
1.02218
0.988673
0.958739
0.932048
0.908258
0.887031
0.868039
0.850971
0.835539
0.821476
0.808541
0.796517
0.78521
0.774446
0.764076
0.753966
0.744003
0.734087
0.72423
0.714308
0.704226
0.693919
0.683348
0.672488
0.66133
0.649877
0.638142
0.626146
0.613916
0.601486
0.588892
0.576178
0.563387
0.550566
0.537761
0.52502
0.512389
0.499913
0.487633
0.475582
0.463788
0.45227
0.441034
0.430069
0.419344
0.408811
0.398405
0.388039
0.377614
0.367033
0.356722
0.346663
0.33681
0.32722
0.317993
0.309237
0.301053
0.293516
0.286652
0.280448
0.274848
0.26976
0.265058
0.260584
0.256155
0.251564
0.246595
0.241024
0.234706
0.227532
0.592378
0.719861
0.812114
0.876204
0.91976
0.948036
0.964993
0.973888
0.97753
0.978349
0.978382
0.979244
0.982098
0.987665
0.996284
1.008
1.02265
1.04
1.05977
1.08168
1.10547
1.13091
1.15776
1.1858
1.21481
1.24454
1.27478
1.30527
1.3358
1.36614
1.39608
1.42544
1.45403
1.4817
1.50832
1.53379
1.55802
1.58095
1.60258
1.62289
1.64192
1.65972
1.67638
1.692
1.7067
1.72064
1.73398
1.74688
1.75954
1.77214
1.78488
1.79794
1.81151
1.82578
1.8409
1.85703
1.87432
1.89286
1.91277
1.93411
1.95692
1.98121
2.00699
2.0342
2.06278
2.09267
2.12384
2.1562
2.18959
2.22384
2.25873
2.29403
2.32943
2.36464
2.3993
2.43301
2.46535
2.49586
2.52403
2.54935
2.57123
2.58909
2.60234
2.61035
2.61254
2.60834
2.59724
2.57879
2.55268
2.51869
2.4768
2.42714
2.37007
2.30612
2.23606
2.1608
2.08142
1.99912
1.91514
1.83071
1.74702
1.66517
1.58611
1.51062
1.43933
1.37269
1.31102
1.25428
1.20242
1.15533
1.11281
1.07463
1.04046
1.00998
0.982832
0.958645
0.937063
0.917737
0.900338
0.884561
0.870123
0.856767
0.844261
0.832398
0.820995
0.80989
0.798943
0.788034
0.777106
0.766109
0.754908
0.743419
0.731588
0.719381
0.706782
0.693788
0.680409
0.666664
0.652583
0.638199
0.623555
0.608699
0.593681
0.578556
0.563381
0.548216
0.533119
0.518153
0.503377
0.48885
0.474626
0.460754
0.447272
0.434201
0.421543
0.409271
0.397332
0.385641
0.374091
0.362557
0.351424
0.340633
0.330108
0.319889
0.310072
0.300776
0.292122
0.28421
0.277103
0.270821
0.265343
0.260599
0.25647
0.252791
0.249354
0.245916
0.24222
0.238011
0.23311
0.227355
0.596868
0.726187
0.821099
0.8887
0.936412
0.969223
0.990838
1.00428
1.01216
1.01673
1.01992
1.0233
1.02806
1.035
1.04461
1.05706
1.07233
1.09028
1.11067
1.13324
1.15773
1.18388
1.21144
1.24014
1.26975
1.30002
1.33071
1.36158
1.39239
1.42293
1.45298
1.48236
1.51089
1.53841
1.56479
1.58991
1.61371
1.63611
1.65708
1.67664
1.6948
1.71161
1.72716
1.74155
1.7549
1.76737
1.77911
1.7903
1.80113
1.81181
1.82253
1.83349
1.84488
1.85691
1.86974
1.88355
1.89849
1.91468
1.93225
1.95127
1.97181
1.99391
2.01758
2.04281
2.06954
2.09773
2.12737
2.15842
2.19077
2.22428
2.25879
2.29409
2.32997
2.36616
2.40237
2.43826
2.47348
2.5076
2.54017
2.57068
2.59859
2.62331
2.64419
2.66057
2.67177
2.6771
2.67588
2.6675
2.6514
2.62717
2.5945
2.55332
2.50373
2.44609
2.38098
2.30925
2.23191
2.15018
2.06536
1.97882
1.89191
1.80589
1.7219
1.64095
1.56383
1.49118
1.42345
1.36072
1.30309
1.25052
1.2029
1.16001
1.12158
1.08727
1.05672
1.02955
1.00536
0.983782
0.964443
0.946996
0.931119
0.916513
0.902907
0.890058
0.877747
0.86578
0.853989
0.842228
0.830383
0.818449
0.806268
0.793737
0.780788
0.767375
0.753474
0.739076
0.724186
0.708824
0.693015
0.676797
0.660214
0.643317
0.626161
0.608809
0.591321
0.573767
0.556215
0.538739
0.521415
0.50432
0.487536
0.471143
0.455216
0.439818
0.424991
0.410747
0.39706
0.383861
0.371039
0.358458
0.346458
0.334899
0.323672
0.312788
0.302328
0.292411
0.283168
0.274726
0.267182
0.260604
0.255012
0.250376
0.2466
0.243522
0.240914
0.238499
0.235978
0.233056
0.229514
0.225159
0.595711
0.725261
0.821655
0.891991
0.943459
0.980734
1.00722
1.02565
1.03839
1.04747
1.05468
1.06147
1.06902
1.07816
1.08946
1.10321
1.11951
1.13828
1.15938
1.18259
1.20767
1.23437
1.26242
1.29157
1.32158
1.35217
1.38313
1.41419
1.44513
1.47573
1.50577
1.53507
1.56344
1.59073
1.61679
1.64151
1.66481
1.68661
1.70689
1.72563
1.74285
1.7586
1.77296
1.78602
1.79791
1.80877
1.81878
1.8281
1.83694
1.84549
1.85397
1.86258
1.87153
1.88103
1.89126
1.9024
1.91462
1.92806
1.94285
1.95909
1.97687
1.99624
2.01723
2.03985
2.06408
2.08987
2.11724
2.14615
2.17655
2.20834
2.24139
2.27557
2.31071
2.34661
2.38305
2.41977
2.45648
2.49284
2.52846
2.56292
2.5957
2.62625
2.65395
2.67811
2.69799
2.71283
2.7218
2.72413
2.71904
2.70587
2.68405
2.6532
2.61317
2.56403
2.50617
2.44025
2.36719
2.28814
2.20447
2.1176
2.02904
1.94023
1.85251
1.76705
1.68489
1.60682
1.53349
1.46512
1.40195
1.34407
1.29144
1.24391
1.20123
1.1631
1.12916
1.099
1.07223
1.04842
1.02718
1.00812
0.990876
0.975108
0.960506
0.946788
0.933698
0.921009
0.908521
0.89606
0.88347
0.870746
0.857736
0.844319
0.830409
0.815949
0.800907
0.785267
0.76903
0.752213
0.734841
0.716952
0.698592
0.679815
0.660678
0.641247
0.621588
0.601772
0.581873
0.561971
0.542151
0.522503
0.503128
0.484134
0.465632
0.447731
0.430524
0.414077
0.398409
0.383484
0.369207
0.355457
0.342514
0.33013
0.318161
0.306579
0.295432
0.284823
0.274886
0.265763
0.25759
0.25048
0.244512
0.239707
0.236013
0.233283
0.23128
0.229697
0.22819
0.226419
0.224123
0.221082
0.590419
0.718931
0.81582
0.888187
0.942963
0.984491
1.01584
1.03945
1.05739
1.07145
1.08322
1.09405
1.10501
1.11696
1.1305
1.14601
1.16366
1.1835
1.20543
1.22932
1.25496
1.28212
1.31057
1.34006
1.37033
1.40114
1.43224
1.4634
1.49438
1.52497
1.55494
1.5841
1.61227
1.63929
1.665
1.6893
1.71208
1.73326
1.75282
1.77072
1.78698
1.80164
1.81476
1.82645
1.83682
1.84602
1.85421
1.86157
1.86831
1.87463
1.88074
1.88687
1.89323
1.90003
1.90748
1.91576
1.92505
1.93551
1.94728
1.96047
1.97518
1.99147
2.0094
2.02898
2.05023
2.0731
2.0976
2.12372
2.15141
2.18062
2.21126
2.24325
2.27647
2.3108
2.34609
2.38216
2.41882
2.45581
2.49286
2.52961
2.56567
2.60054
2.63367
2.6644
2.692
2.71565
2.73447
2.7475
2.75382
2.75249
2.74266
2.72366
2.69497
2.65638
2.60796
2.55012
2.48362
2.40951
2.32911
2.24392
2.15553
2.06556
1.97551
1.88677
1.80056
1.7179
1.63961
1.56609
1.49775
1.43483
1.37738
1.32534
1.27853
1.23665
1.19936
1.16626
1.13694
1.11095
1.08786
1.06725
1.04872
1.03188
1.01638
1.00191
0.988168
0.974895
0.961859
0.948855
0.93571
0.92233
0.908645
0.894499
0.87979
0.86445
0.848436
0.831727
0.81432
0.796228
0.777477
0.758106
0.738162
0.7177
0.696783
0.675475
0.653847
0.631969
0.609917
0.587769
0.565611
0.543537
0.521658
0.500096
0.478992
0.458498
0.438761
0.41991
0.402033
0.38515
0.369194
0.354148
0.340132
0.326835
0.314073
0.301758
0.28989
0.278538
0.267821
0.25789
0.248909
0.241041
0.234427
0.229157
0.225236
0.222557
0.220887
0.219892
0.219186
0.21838
0.217165
0.215295
0.582574
0.708871
0.805399
0.879165
0.936794
0.982283
1.01836
1.04713
1.07037
1.08963
1.10628
1.12149
1.13629
1.15147
1.16765
1.18527
1.20457
1.22568
1.2486
1.27324
1.29946
1.32708
1.35588
1.38564
1.41613
1.44709
1.47829
1.5095
1.54049
1.57103
1.60091
1.62993
1.6579
1.68465
1.71003
1.73391
1.75619
1.77678
1.79564
1.81272
1.82804
1.84162
1.85353
1.86386
1.87272
1.88025
1.88662
1.89202
1.89665
1.90071
1.90445
1.90807
1.91182
1.9159
1.92054
1.92594
1.93227
1.93971
1.94839
1.95845
1.96998
1.98307
1.99776
2.01409
2.03209
2.05172
2.07297
2.09581
2.12023
2.14619
2.17364
2.20253
2.23279
2.26437
2.2972
2.33118
2.3662
2.40213
2.4388
2.47598
2.51338
2.55064
2.5873
2.62282
2.65651
2.68758
2.71513
2.73813
2.75549
2.76608
2.76879
2.76257
2.74658
2.72021
2.68316
2.63554
2.57783
2.51092
2.43604
2.35464
2.26843
2.17915
2.08844
1.99787
1.90885
1.82263
1.7402
1.6622
1.58923
1.52167
1.4597
1.40338
1.3526
1.3071
1.26655
1.23059
1.19879
1.17068
1.14581
1.12372
1.10398
1.08616
1.06987
1.05475
1.04048
1.02676
1.01331
0.999912
0.98636
0.972496
0.958289
0.943569
0.928219
0.91216
0.895341
0.877734
0.859333
0.840149
0.820208
0.799549
0.778223
0.756288
0.733809
0.710854
0.687494
0.6638
0.639846
0.615705
0.591454
0.567184
0.543
0.519028
0.495421
0.47236
0.450042
0.428662
0.408388
0.389323
0.371471
0.354965
0.3397
0.325371
0.311742
0.298657
0.286044
0.273917
0.262364
0.251528
0.241594
0.232768
0.225254
0.219223
0.214756
0.211804
0.210156
0.209467
0.209307
0.20924
0.208902
0.208004
0.572194
0.695563
0.791229
0.866021
0.926232
0.97551
1.01624
1.05019
1.07884
1.10348
1.12525
1.14517
1.16414
1.18291
1.20209
1.22213
1.24337
1.26598
1.29004
1.31556
1.34244
1.37054
1.39971
1.42974
1.46041
1.49151
1.5228
1.55405
1.58504
1.61553
1.64533
1.67422
1.70201
1.72853
1.75362
1.77713
1.79895
1.81899
1.83719
1.8535
1.86792
1.88047
1.89121
1.90021
1.90759
1.91349
1.91807
1.92153
1.92407
1.92591
1.92729
1.92844
1.9296
1.93101
1.93288
1.93542
1.93883
1.94328
1.94892
1.95586
1.96422
1.97406
1.98546
1.99844
2.01302
2.02921
2.04695
2.0662
2.08695
2.10915
2.13279
2.15784
2.18428
2.21211
2.24132
2.2719
2.30382
2.33706
2.37156
2.40722
2.44391
2.48141
2.51941
2.5575
2.59515
2.63167
2.6662
2.69773
2.72511
2.74704
2.76218
2.76918
2.7668
2.75401
2.73008
2.6947
2.64802
2.59063
2.52365
2.44835
2.36653
2.28008
2.19066
2.09998
2.00965
1.92109
1.83551
1.75381
1.67681
1.60506
1.53888
1.47849
1.42391
1.37491
1.33119
1.29242
1.25817
1.22798
1.20137
1.17785
1.15694
1.1382
1.12119
1.10552
1.09081
1.07673
1.06299
1.04932
1.03548
1.02128
1.00668
0.991503
0.975637
0.958987
0.941495
0.923127
0.903873
0.883743
0.862763
0.840977
0.818437
0.795207
0.771355
0.746956
0.722082
0.696807
0.671202
0.645332
0.619265
0.593076
0.566858
0.540722
0.514811
0.489323
0.464481
0.440536
0.417742
0.396301
0.37641
0.35819
0.341459
0.325939
0.311345
0.29744
0.284062
0.27115
0.258735
0.246938
0.235946
0.226001
0.217372
0.210308
0.204984
0.201428
0.199477
0.198786
0.198894
0.199313
0.199623
0.199494
0.560483
0.680841
0.775503
0.851057
0.913475
0.966096
1.01099
1.04965
1.08327
1.11289
1.13947
1.16387
1.18687
1.20917
1.23134
1.25387
1.27711
1.30131
1.32661
1.35305
1.38063
1.40927
1.43882