/*--------------------------------*- C++ -*----------------------------------*\
  =========                 |
  \\      /  F ield         | OpenFOAM: The Open Source CFD Toolbox
   \\    /   O peration     | Website:  https://openfoam.org
    \\  /    A nd           | Version:  9
     \\/     M anipulation  |
\*---------------------------------------------------------------------------*/
FoamFile
{
    format      ascii;
    class       volScalarField;
    location    "0.14";
    object      nut;
}
// * * * * * * * * * * * * * * * * * * * * * * * * * * * * * * * * * * * * * //

dimensions      [0 2 -1 0 0 0 0];

internalField   nonuniform List<scalar> 
12225
(
3.04858e-05
1.83645e-05
1.18992e-05
8.50484e-06
6.67154e-06
5.60049e-06
4.89616e-06
4.37458e-06
3.95422e-06
3.59876e-06
3.29078e-06
3.02109e-06
2.78508e-06
2.58275e-06
2.42473e-06
2.37903e-06
2.94039e-06
1.05936e-05
0.000163227
0.000102332
8.24992e-05
7.33887e-05
6.82623e-05
6.46835e-05
6.16181e-05
5.87338e-05
5.59824e-05
5.33896e-05
5.09871e-05
4.88056e-05
4.68871e-05
4.53211e-05
4.43561e-05
4.48182e-05
4.6776e-05
5.88689e-05
0.000339373
0.000221084
0.000179278
0.000158236
0.000145521
0.000136656
0.000129547
0.000123266
0.000117478
0.000112106
0.000107182
0.000102785
9.90298e-05
9.61169e-05
9.44814e-05
9.49283e-05
9.5691e-05
0.000105985
0.000503629
0.000350232
0.000285863
0.000250988
0.000229032
0.000213586
0.000201524
0.00019127
0.000182079
0.000173652
0.000165923
0.000158957
0.00015291
0.000148045
0.000144775
0.000143102
0.000139529
0.00014549
0.000628782
0.000471983
0.000392306
0.000345371
0.000314478
0.000292301
0.000275039
0.000260613
0.000247912
0.000236387
0.000225827
0.000216229
0.000207733
0.000200592
0.000195022
0.000190045
0.000181305
0.000181075
0.000714225
0.000576033
0.000491335
0.000436551
0.000398549
0.000370454
0.000348352
0.00032993
0.000313843
0.000299344
0.000286077
0.000273948
0.00026304
0.000253522
0.000245309
0.000236597
0.000222766
0.000215541
0.00076891
0.000658535
0.000578053
0.000520601
0.000478311
0.000445877
0.000419848
0.000397992
0.000378903
0.000361733
0.000346024
0.000331594
0.000318446
0.000306619
0.000295703
0.000283326
0.00026493
0.000250702
0.000802521
0.000720125
0.000649965
0.000594666
0.000551269
0.000516547
0.00048793
0.000463543
0.000442098
0.000422755
0.000405015
0.000388639
0.000373545
0.000359629
0.000346189
0.000330552
0.000308381
0.000287767
0.000822644
0.000763879
0.000706701
0.000657127
0.000615557
0.000580723
0.000551093
0.000525326
0.000502389
0.00048155
0.00046234
0.000444495
0.00042787
0.000412223
0.000396642
0.000378371
0.000353381
0.000327494
0.000834489
0.00079371
0.000749473
0.000707595
0.000670094
0.000637109
0.000608054
0.000582165
0.000558738
0.000537222
0.000517227
0.000498507
0.000480874
0.000463987
0.000446809
0.000426677
0.000399911
0.000370216
0.000841388
0.000813365
0.000780406
0.00074672
0.000714614
0.00068497
0.000657881
0.000633081
0.0006102
0.000588892
0.00056888
0.000549963
0.00053194
0.000514411
0.000496301
0.000475157
0.000447685
0.000415814
0.000845055
0.000824906
0.000800143
0.000773406
0.000746621
0.000720843
0.000696495
0.000673628
0.000652119
0.000631794
0.000612487
0.000594047
0.000576282
0.000558772
0.000540473
0.000519174
0.00049192
0.000459384
0.000847315
0.000832567
0.000814159
0.000793478
0.000771861
0.000750252
0.000729183
0.000708888
0.000689423
0.000670751
0.000652803
0.000635484
0.000618619
0.000601801
0.00058407
0.000563516
0.000537592
0.000506083
0.000848805
0.000837961
0.000824696
0.00080949
0.000793055
0.00077604
0.000758916
0.000741973
0.000725364
0.000709152
0.000693343
0.000677891
0.000662651
0.000647253
0.000630865
0.000611923
0.000588325
0.000559269
0.000849708
0.000841418
0.000831887
0.000821107
0.000809308
0.00079681
0.000783909
0.000770838
0.000757755
0.000744755
0.00073188
0.00071911
0.000706327
0.000693215
0.000679099
0.000662774
0.000642601
0.000617532
0.000850205
0.000843417
0.000836294
0.000828667
0.000820515
0.000811914
0.000802979
0.00079383
0.000784561
0.00077524
0.000765893
0.000756497
0.000746942
0.000736968
0.000726059
0.000713344
0.000697638
0.000677939
0.00085045
0.000844444
0.000838679
0.000833001
0.00082732
0.000821605
0.000815862
0.000810116
0.000804388
0.000798688
0.000793
0.000787269
0.000781381
0.000775115
0.000768093
0.000759722
0.000749207
0.000735771
0.000850547
0.000844873
0.000839733
0.000835029
0.000830695
0.000826696
0.000823015
0.000819645
0.000816574
0.000813775
0.000811199
0.000808765
0.000806348
0.000803758
0.000800716
0.000796831
0.000791604
0.000784514
0.000850535
0.000844856
0.000839747
0.000835148
0.000831038
0.000827434
0.000824366
0.000821867
0.000819957
0.000818626
0.000817837
0.000817511
0.000817534
0.000817744
0.000817933
0.000817835
0.000817135
0.000815497
0.000850337
0.000844077
0.000838026
0.000832162
0.000826571
0.000821401
0.000816822
0.000812989
0.000810012
0.000807955
0.000806818
0.00080655
0.000807047
0.000808161
0.000809706
0.000811458
0.00081316
0.000814537
0.000849781
0.000841926
0.00083344
0.000824539
0.000815617
0.000807106
0.000799391
0.000792765
0.000787425
0.000783469
0.000780907
0.000779679
0.000779661
0.000780688
0.000782559
0.000785048
0.000787905
0.000790853
0.000848266
0.000836386
0.000822425
0.00080747
0.000792631
0.000778763
0.000766443
0.000756008
0.00074762
0.000741308
0.000737003
0.000734563
0.000733795
0.000734475
0.000736357
0.000739181
0.000742674
0.000746532
0.000844354
0.000823402
0.000798964
0.000774168
0.000751062
0.000730658
0.00071336
0.000699232
0.000688166
0.000679964
0.00067438
0.000671131
0.000669923
0.00067045
0.000672412
0.000675513
0.000679451
0.000683893
0.000834735
0.000795754
0.000754755
0.0007173
0.000685325
0.000659131
0.000638276
0.000621977
0.000609651
0.000600782
0.000594908
0.00059161
0.000590499
0.000591213
0.000593417
0.000596796
0.000601043
0.00060581
0.000812238
0.000742524
0.000681048
0.000632019
0.000594108
0.000565187
0.000543413
0.000527411
0.000515758
0.000507673
0.000502552
0.000499903
0.000499305
0.000500391
0.000502834
0.000506338
0.000510619
0.000515352
0.00076289
0.000651302
0.000573019
0.000519107
0.000481269
0.000454312
0.000435004
0.000421334
0.000412025
0.00040581
0.000402087
0.000400399
0.000400374
0.000401699
0.000404104
0.000407348
0.000411206
0.000415404
0.000664119
0.000515249
0.000434848
0.000386624
0.000355521
0.000334673
0.000320409
0.000310645
0.000304239
0.000300233
0.000297946
0.000297046
0.000297278
0.000298431
0.000300325
0.0003028
0.000305704
0.000308845
0.000492987
0.00034419
0.000281881
0.000248288
0.00022802
0.000215168
0.000206735
0.000201099
0.000197405
0.000195197
0.000193882
0.000193299
0.000193333
0.000193888
0.000194877
0.00019622
0.000197835
0.000199615
0.000262107
0.000171047
0.000137664
0.000120471
0.000110552
0.000104575
0.000100757
9.81687e-05
9.63658e-05
9.51703e-05
9.42991e-05
9.37288e-05
9.34375e-05
9.33986e-05
9.35818e-05
9.39544e-05
9.44821e-05
9.51223e-05
5.96405e-05
4.2576e-05
3.14119e-05
2.40844e-05
1.92596e-05
1.60647e-05
1.39234e-05
1.2459e-05
1.14358e-05
1.07146e-05
1.02297e-05
9.9076e-06
9.70241e-06
9.58389e-06
9.53073e-06
9.52751e-06
9.5625e-06
9.62623e-06
3.1082e-05
4.42768e-05
4.78014e-05
4.98883e-05
5.11031e-05
5.17263e-05
5.191e-05
5.17391e-05
5.12562e-05
5.04783e-05
4.94442e-05
4.84796e-05
4.75375e-05
4.66475e-05
4.59082e-05
4.54731e-05
4.5499e-05
4.60544e-05
4.70542e-05
4.82868e-05
4.95269e-05
5.05535e-05
5.13065e-05
5.18151e-05
5.21569e-05
5.25189e-05
5.34111e-05
5.45443e-05
5.58234e-05
5.72079e-05
5.86793e-05
6.02227e-05
6.18233e-05
6.34656e-05
6.51351e-05
6.6818e-05
6.85024e-05
7.01777e-05
7.18355e-05
7.34687e-05
7.50717e-05
7.66403e-05
7.81712e-05
7.96619e-05
8.11105e-05
8.25157e-05
8.38765e-05
8.5192e-05
8.64617e-05
8.76849e-05
8.88611e-05
8.99898e-05
9.10702e-05
9.21019e-05
9.3084e-05
9.40158e-05
9.48965e-05
9.57254e-05
9.65016e-05
9.72247e-05
9.78943e-05
9.85105e-05
9.90741e-05
9.95863e-05
0.00010005
0.000100512
0.000100899
0.00010121
0.000101443
0.000101596
0.000101664
0.000101641
0.000101524
0.000101308
0.000100986
0.000100553
0.000100006
9.93393e-05
9.85487e-05
9.76309e-05
9.65832e-05
9.54039e-05
9.40925e-05
9.26497e-05
9.10778e-05
8.93808e-05
8.75646e-05
8.5637e-05
8.36081e-05
8.14899e-05
7.92969e-05
7.70457e-05
7.47551e-05
7.2446e-05
7.01416e-05
6.78665e-05
6.56467e-05
6.35088e-05
6.14783e-05
5.95784e-05
5.78281e-05
5.62408e-05
5.48233e-05
5.35758e-05
5.24926e-05
5.15639e-05
5.07769e-05
5.01174e-05
4.95701e-05
4.91169e-05
4.87716e-05
4.84909e-05
4.82657e-05
4.80866e-05
4.79453e-05
4.7834e-05
4.77461e-05
4.76755e-05
4.76169e-05
4.75659e-05
4.75186e-05
4.74718e-05
4.74229e-05
4.73701e-05
4.73124e-05
4.72611e-05
4.72106e-05
4.71498e-05
4.70784e-05
4.69969e-05
4.69067e-05
4.68119e-05
4.67209e-05
4.66507e-05
4.66318e-05
4.66979e-05
4.68432e-05
4.68022e-05
4.57349e-05
4.54331e-05
4.51338e-05
4.48228e-05
4.45716e-05
4.43982e-05
4.49164e-05
0.000208787
0.000208319
4.62533e-05
0.000210659
0.000209684
0.000208019
0.000205024
4.35717e-05
0.000206834
0.000205986
0.000213967
0.000199825
4.00443e-05
3.98726e-05
4.00584e-05
4.00512e-05
4.03646e-05
0.000199424
0.000198002
0.000188832
0.000197257
0.00018969
0.000194036
0.000195448
0.000193109
0.00018881
0.00018338
0.000177118
0.000170126
0.000162434
0.000154043
0.000145016
0.000135759
0.000126429
0.000117481
5.86415e-05
0.000125436
0.000179356
0.000220134
0.000249181
0.000268313
0.000279309
0.000283765
0.00028301
0.000277991
0.000268972
0.000255981
0.000243957
0.000236583
0.000236021
0.000242464
0.000254079
0.000267787
0.000280557
0.000290354
0.000296449
0.00029941
0.000300385
0.000300345
0.000299903
0.000299397
0.000299192
0.000299519
0.000300434
0.000301935
0.000304019
0.000306683
0.000309931
0.000313764
0.000318183
0.000323184
0.000328764
0.000334913
0.000341622
0.000348883
0.000356685
0.00036502
0.000373882
0.000383268
0.000393177
0.000403611
0.000414574
0.000426073
0.000438114
0.000450707
0.000463857
0.000477568
0.000491841
0.00050667
0.000522042
0.000537932
0.000554303
0.000571099
0.000588245
0.000605635
0.000623131
0.000640553
0.000657669
0.000674192
0.000689804
0.000703853
0.00071767
0.000731339
0.000744801
0.000757974
0.000770768
0.000783085
0.000794822
0.000805871
0.000816118
0.000825448
0.000833746
0.000840894
0.00084678
0.000851292
0.000854327
0.000855787
0.000855585
0.000853642
0.000849892
0.000844284
0.000836775
0.000827341
0.000815964
0.000802644
0.000787391
0.000770228
0.000751197
0.000730367
0.000707845
0.000683791
0.000658439
0.00063211
0.000605214
0.00057824
0.000551714
0.000526158
0.000502032
0.000479689
0.000459351
0.000441112
0.000424951
0.000410768
0.000398414
0.000387569
0.000377639
0.000369052
0.000361766
0.000355647
0.000350556
0.000346365
0.000342958
0.000340232
0.000338092
0.000336451
0.000335227
0.000334338
0.000333701
0.000333229
0.000332834
0.000332438
0.000332178
0.000332058
0.000332066
0.000332193
0.000332438
0.000332811
0.00033333
0.000334021
0.00033489
0.000335821
0.000336315
0.000334956
0.000329986
0.000328963
0.00032816
0.000327774
0.000328178
0.000330093
0.000339241
0.000385021
0.000381464
0.000337226
0.000383973
0.000383697
0.000381418
0.000375924
0.000326875
0.000381589
0.000386302
0.000413416
0.000375134
0.000311713
0.000306361
0.000303932
0.000301061
0.000299377
0.00037848
0.000375877
0.000344375
0.000396213
0.000348903
0.000395742
0.000416039
0.00041743
0.000410745
0.000400509
0.000388272
0.000374523
0.000359355
0.000342609
0.000323347
0.000301809
0.000278833
0.000255978
7.82558e-05
0.000170765
0.000255371
0.000324312
0.000376917
0.000414435
0.000438654
0.000451518
0.000455037
0.000451311
0.000441418
0.000427692
0.00041476
0.000406684
0.000405791
0.000411989
0.000423152
0.000435879
0.000447501
0.000456605
0.000462975
0.000467232
0.000470293
0.000473066
0.000476262
0.00048038
0.000485769
0.000492644
0.000501115
0.000511226
0.000522983
0.000536359
0.000551304
0.000567742
0.000585581
0.000604717
0.000625037
0.000646426
0.000668776
0.000691983
0.000715958
0.000740623
0.000765917
0.000791791
0.000818213
0.000845159
0.000872619
0.000900588
0.000929064
0.000958049
0.000987541
0.00101753
0.00104802
0.00107896
0.00111033
0.00114206
0.0011741
0.00120633
0.00123865
0.00127091
0.00130295
0.00133458
0.00136561
0.00139584
0.00142509
0.00145348
0.00148153
0.00150924
0.0015365
0.00156315
0.00158903
0.00161394
0.0016377
0.0016601
0.00168094
0.00170001
0.0017171
0.00173201
0.00174453
0.00175446
0.00176164
0.00176588
0.00176705
0.001765
0.00175962
0.00175084
0.00173857
0.00172276
0.00170339
0.00168045
0.00165392
0.00162383
0.00159021
0.00155312
0.00151267
0.00146903
0.0014225
0.00137349
0.00132259
0.00127056
0.00121828
0.00116674
0.00111692
0.00106971
0.00102579
0.000985663
0.000949552
0.000917478
0.000889289
0.000864158
0.000842198
0.000823311
0.00080722
0.000793605
0.000782146
0.000772548
0.000764538
0.000757869
0.000752319
0.000747685
0.000743783
0.000740447
0.000737527
0.000734889
0.000732424
0.000730055
0.000727983
0.000726095
0.000724336
0.000722682
0.000721125
0.000719682
0.000718387
0.000717295
0.000716445
0.000715782
0.000714969
0.000713207
0.000709934
0.000707078
0.000704287
0.00070186
0.000700134
0.000699698
0.000702951
0.000713701
0.000711407
0.000700761
0.000709802
0.000707527
0.000704076
0.000699552
0.000686235
0.000699452
0.000699373
0.000703944
0.000685462
0.00066224
0.000652662
0.000645121
0.000639602
0.000632574
0.000645436
0.000635046
0.000617797
0.000633015
0.000611221
0.000623856
0.000629532
0.000624844
0.000613847
0.000599219
0.000582114
0.000562921
0.000541663
0.000518095
0.000491463
0.000460655
0.000426372
0.000389572
9.61842e-05
0.000216296
0.000327421
0.000416086
0.000482592
0.000529474
0.000559452
0.00057518
0.000579359
0.000574924
0.00056405
0.000551261
0.00054073
0.000535508
0.000536834
0.000544032
0.000555139
0.0005678
0.000580208
0.000591473
0.000601569
0.000611041
0.000620674
0.00063125
0.000643409
0.000657604
0.000674116
0.000693075
0.000714494
0.000738297
0.000764344
0.000792448
0.000822393
0.000853945
0.000886865
0.000920923
0.000955902
0.000991608
0.00102787
0.00106456
0.00110155
0.00113876
0.00117613
0.00121363
0.00125123
0.00128893
0.00132673
0.00136465
0.0014027
0.00144089
0.00147923
0.00151772
0.00155637
0.00159514
0.00163403
0.00167297
0.00171192
0.0017508
0.00178953
0.00182801
0.00186614
0.0019038
0.00194088
0.00197725
0.0020128
0.00204777
0.00208227
0.00211622
0.00214947
0.00218185
0.00221313
0.00224311
0.00227156
0.00229824
0.00232292
0.00234536
0.00236532
0.00238256
0.00239687
0.00240804
0.00241586
0.00242016
0.00242079
0.00241761
0.00241054
0.00239949
0.00238441
0.00236529
0.00234214
0.00231497
0.00228382
0.00224875
0.0022098
0.00216706
0.0021206
0.00207055
0.00201711
0.00196056
0.00190135
0.00184007
0.00177753
0.00171468
0.00165259
0.00159235
0.00153501
0.00148141
0.00143218
0.00138767
0.00134781
0.00131227
0.00128108
0.00125402
0.00123073
0.0012108
0.00119381
0.00117934
0.00116703
0.00115651
0.00114746
0.00113961
0.00113268
0.00112647
0.00112077
0.00111542
0.00111029
0.00110525
0.00110054
0.00109599
0.00109147
0.00108694
0.00108238
0.0010778
0.00107322
0.0010687
0.00106426
0.00105989
0.0010554
0.00105041
0.00104466
0.00103858
0.00103239
0.0010264
0.00102083
0.00101595
0.00101238
0.00101034
0.00100552
0.000999329
0.000996584
0.0009913
0.000985506
0.000979545
0.000972531
0.000971147
0.000965939
0.0009605
0.00094819
0.000934798
0.000922407
0.000910234
0.000899561
0.000886781
0.000876404
0.000860845
0.00084499
0.000839578
0.000823077
0.000816917
0.00080906
0.000796497
0.000780134
0.000760972
0.000739498
0.000715829
0.000689857
0.00066127
0.000629418
0.000592992
0.000552277
0.000508188
0.000113885
0.00026193
0.000395543
0.000499669
0.000576316
0.000629419
0.000662778
0.000680059
0.000685132
0.000680556
0.000670906
0.000660566
0.00065314
0.000650878
0.000654432
0.000663103
0.000675445
0.000689927
0.000705441
0.000721498
0.00073817
0.000755887
0.00077522
0.000796708
0.000820756
0.000847593
0.000877282
0.000909745
0.000944796
0.000982175
0.00102158
0.00106267
0.00110514
0.00114866
0.00119293
0.00123769
0.00128272
0.00132781
0.00137282
0.00141762
0.00146212
0.00150625
0.00154999
0.00159332
0.00163625
0.00167878
0.00172095
0.00176278
0.00180432
0.00184559
0.00188663
0.00192746
0.00196811
0.00200858
0.00204889
0.00208903
0.00212898
0.00216871
0.00220818
0.00224735
0.00228616
0.00232454
0.00236241
0.00239967
0.00243623
0.0024723
0.00250788
0.00254285
0.00257705
0.00261031
0.0026424
0.00267311
0.00270223
0.0027295
0.00275469
0.00277757
0.00279789
0.00281542
0.00282995
0.00284127
0.00284919
0.00285353
0.00285416
0.00285096
0.00284385
0.00283276
0.00281768
0.00279861
0.0027756
0.00274869
0.00271796
0.0026835
0.0026454
0.00260373
0.00255856
0.00250999
0.00245809
0.00240302
0.00234499
0.00228434
0.00222159
0.00215745
0.00209281
0.00202868
0.00196617
0.00190634
0.00185011
0.00179822
0.00175073
0.00170791
0.00166983
0.00163633
0.00160711
0.00158178
0.0015599
0.00154102
0.00152469
0.0015105
0.00149807
0.00148705
0.00147712
0.00146801
0.00145949
0.00145135
0.00144344
0.00143561
0.00142791
0.00142036
0.00141275
0.00140499
0.00139702
0.00138884
0.00138047
0.00137193
0.00136325
0.00135443
0.00134536
0.00133591
0.00132597
0.00131566
0.00130521
0.00129484
0.0012847
0.00127493
0.00126573
0.00125705
0.00124803
0.00123899
0.00123061
0.00122172
0.00121274
0.00120387
0.0011951
0.00118744
0.00117832
0.00116829
0.00115594
0.00114256
0.00112778
0.00111209
0.00109669
0.00107961
0.00106173
0.00104232
0.00102318
0.00100701
0.000987692
0.000971222
0.0009541
0.000934753
0.000913171
0.000889582
0.000864063
0.00083653
0.000806771
0.000774427
0.000738906
0.000699083
0.000654766
0.000607108
0.000131287
0.00030185
0.000455076
0.000573593
0.000660409
0.00072063
0.000759063
0.000780278
0.000787394
0.000785049
0.000777983
0.000770483
0.00076587
0.000766121
0.000771849
0.00078264
0.000797571
0.000815686
0.000836298
0.000859099
0.000884107
0.000911531
0.000941631
0.00097461
0.00101055
0.0010494
0.00109098
0.00113501
0.00118116
0.00122905
0.0012783
0.00132853
0.00137939
0.00143058
0.00148179
0.0015328
0.0015834
0.00163341
0.00168272
0.00173123
0.00177887
0.00182561
0.00187143
0.00191634
0.00196037
0.00200355
0.00204593
0.00208757
0.00212852
0.00216886
0.00220865
0.00224794
0.0022868
0.00232527
0.00236341
0.00240125
0.00243882
0.00247613
0.0025132
0.00255001
0.00258654
0.00262276
0.0026586
0.00269399
0.00272883
0.00276332
0.00279743
0.00283103
0.00286398
0.00289611
0.00292721
0.00295709
0.00298552
0.00301228
0.00303714
0.00305988
0.00308026
0.00309807
0.00311309
0.00312512
0.00313398
0.0031395
0.00314155
0.00314
0.00313478
0.00312584
0.00311315
0.00309673
0.00307663
0.00305291
0.00302567
0.002995
0.00296101
0.00292378
0.0028834
0.00283992
0.00279336
0.00274377
0.00269118
0.00263574
0.00257767
0.00251738
0.00245548
0.00239276
0.0023302
0.00226886
0.0022098
0.002154
0.00210189
0.00205404
0.00201075
0.00197204
0.00193777
0.00190763
0.00188125
0.00185819
0.001838
0.00182024
0.00180448
0.00179032
0.00177742
0.00176545
0.00175413
0.00174323
0.00173253
0.00172188
0.00171118
0.00170056
0.00168979
0.00167873
0.0016673
0.00165546
0.00164322
0.00163058
0.00161757
0.00160418
0.00159039
0.00157618
0.00156153
0.00154652
0.00153133
0.00151612
0.00150102
0.00148617
0.00147167
0.00145755
0.00144369
0.00143018
0.00141706
0.00140411
0.0013914
0.00137902
0.00136697
0.00135525
0.00134299
0.00133008
0.00131612
0.00130113
0.00128456
0.00126654
0.00124801
0.00122803
0.00120673
0.00118431
0.00116153
0.00113914
0.00111558
0.00109253
0.00106895
0.00104413
0.00101791
0.000990267
0.000961113
0.00093027
0.00089747
0.000862332
0.000824304
0.000782527
0.000736359
0.000687188
0.000147145
0.000337563
0.000508407
0.000640632
0.000738074
0.00080679
0.000852304
0.000878438
0.000890059
0.000892012
0.000888981
0.000885151
0.000883785
0.00088693
0.000895453
0.000909334
0.000928081
0.000951088
0.000977857
0.00100807
0.00104158
0.0010783
0.00111818
0.00116109
0.00120684
0.00125515
0.00130568
0.00135803
0.00141181
0.00146659
0.001522
0.00157766
0.00163326
0.0016885
0.00174312
0.00179693
0.00184973
0.0019014
0.00195183
0.00200095
0.0020487
0.00209508
0.0021401
0.00218377
0.00222614
0.00226728
0.00230726
0.00234616
0.00238408
0.00242111
0.00245735
0.00249291
0.00252788
0.00256236
0.00259644
0.00263019
0.00266369
0.00269699
0.00273014
0.00276317
0.00279606
0.00282883
0.00286142
0.00289378
0.00292582
0.00295771
0.00298942
0.00302084
0.00305184
0.00308226
0.00311192
0.00314063
0.00316819
0.00319438
0.003219
0.00324183
0.00326266
0.00328126
0.00329744
0.003311
0.00332177
0.00332957
0.00333426
0.00333572
0.00333386
0.00332862
0.00331996
0.00330789
0.00329242
0.00327363
0.0032516
0.00322641
0.00319818
0.00316699
0.00313293
0.00309604
0.00305632
0.00301375
0.00296828
0.00291988
0.00286858
0.00281452
0.002758
0.00269956
0.00263994
0.00258007
0.002521
0.0024638
0.0024092
0.00235804
0.00231085
0.0022679
0.00222925
0.00219475
0.00216413
0.00213704
0.00211306
0.00209173
0.00207264
0.00205534
0.00203946
0.00202463
0.00201053
0.00199689
0.00198346
0.00197002
0.0019564
0.00194275
0.00192885
0.00191455
0.00189972
0.0018843
0.00186827
0.00185163
0.00183437
0.00181651
0.00179808
0.0017791
0.0017596
0.00173968
0.00171948
0.00169914
0.00167881
0.00165863
0.00163873
0.0016192
0.00160011
0.00158154
0.00156354
0.00154608
0.00152919
0.00151293
0.00149728
0.00148212
0.00146703
0.0014518
0.00143613
0.0014197
0.00140198
0.00138274
0.00136253
0.0013409
0.00131774
0.00129321
0.00126766
0.00124138
0.00121411
0.00118643
0.00115809
0.00112884
0.00109862
0.00106739
0.00103506
0.00100144
0.000966252
0.000929112
0.000889494
0.000846685
0.000799959
0.000750564
0.000160803
0.000368248
0.000554824
0.000700137
0.000808655
0.000886802
0.000939817
0.000973106
0.00099158
0.000999963
0.00100278
0.0010041
0.00100721
0.00101433
0.00102666
0.00104457
0.00106788
0.0010962
0.00112909
0.00116614
0.001207
0.00125134
0.00129884
0.00134915
0.00140189
0.00145666
0.00151301
0.00157053
0.0016288
0.00168741
0.00174599
0.00180422
0.00186178
0.00191843
0.00197394
0.00202811
0.00208081
0.0021319
0.00218131
0.00222898
0.00227487
0.002319
0.00236138
0.00240207
0.00244112
0.00247864
0.00251471
0.00254945
0.002583
0.00261547
0.00264701
0.00267776
0.00270786
0.00273744
0.00276663
0.00279554
0.00282429
0.00285297
0.00288163
0.00291035
0.00293915
0.00296804
0.002997
0.00302598
0.00305492
0.00308394
0.00311302
0.00314207
0.00317099
0.00319961
0.00322779
0.00325534
0.0032821
0.00330785
0.00333242
0.00335558
0.00337716
0.00339694
0.00341473
0.00343035
0.00344361
0.00345436
0.00346244
0.00346771
0.00347009
0.00346947
0.00346579
0.00345905
0.00344922
0.00343635
0.00342048
0.0034017
0.00338008
0.00335572
0.00332869
0.00329902
0.00326672
0.00323173
0.00319395
0.00315327
0.00310956
0.00306276
0.00301295
0.00296037
0.00290549
0.00284905
0.00279195
0.00273524
0.00267988
0.00262687
0.00257696
0.00253067
0.00248828
0.00244985
0.00241527
0.0023843
0.00235658
0.00233171
0.00230927
0.00228883
0.00226996
0.00225228
0.00223543
0.00221909
0.00220298
0.00218685
0.00217048
0.00215383
0.0021369
0.00211945
0.00210134
0.00208246
0.00206278
0.00204225
0.00202089
0.00199872
0.00197575
0.00195204
0.00192766
0.00190271
0.00187732
0.00185164
0.00182583
0.00180006
0.00177448
0.00174926
0.00172454
0.00170046
0.00167714
0.00165466
0.0016331
0.00161254
0.001593
0.0015744
0.0015565
0.00153907
0.00152182
0.00150432
0.00148605
0.00146651
0.00144584
0.00142371
0.00139987
0.00137431
0.00134713
0.00131849
0.0012885
0.00125747
0.0012255
0.00119262
0.00115896
0.00112458
0.00108948
0.00105355
0.00101653
0.000978048
0.000937582
0.000894496
0.000848107
0.000799369
0.000171714
0.000393366
0.000593662
0.000751108
0.000870064
0.000957502
0.00101972
0.00106206
0.00108932
0.00110604
0.00111653
0.00112468
0.00113376
0.00114613
0.00116326
0.00118582
0.00121392
0.00124729
0.00128551
0.00132811
0.00137457
0.00142442
0.00147716
0.00153232
0.00158942
0.00164799
0.00170757
0.00176774
0.00182808
0.00188822
0.00194781
0.00200654
0.00206414
0.00212038
0.00217505
0.00222798
0.00227903
0.00232811
0.00237514
0.00242008
0.00246292
0.00250367
0.00254237
0.0025791
0.00261394
0.00264701
0.00267843
0.00270836
0.00273693
0.00276433
0.00279072
0.00281628
0.00284118
0.0028656
0.00288968
0.00291359
0.00293745
0.00296138
0.00298549
0.00300984
0.00303448
0.00305945
0.00308473
0.0031103
0.00313611
0.00316223
0.00318864
0.00321529
0.00324208
0.00326886
0.00329551
0.00332187
0.00334778
0.00337305
0.00339753
0.00342102
0.00344335
0.00346433
0.00348379
0.00350156
0.00351746
0.00353134
0.00354305
0.00355244
0.00355938
0.00356379
0.00356556
0.00356463
0.00356097
0.00355456
0.00354541
0.00353357
0.00351908
0.003502
0.0034824
0.00346029
0.00343567
0.00340848
0.00337861
0.00334588
0.0033101
0.00327105
0.00322863
0.00318283
0.00313388
0.00308224
0.00302864
0.002974
0.00291939
0.00286589
0.00281445
0.00276577
0.00272038
0.00267856
0.00264038
0.00260576
0.00257445
0.00254612
0.00252039
0.00249683
0.00247501
0.00245452
0.00243498
0.00241602
0.00239733
0.00237861
0.00235963
0.00234018
0.00232036
0.00229991
0.00227866
0.00225649
0.00223331
0.00220908
0.00218378
0.00215741
0.00213003
0.00210167
0.00207241
0.00204237
0.00201168
0.00198049
0.00194898
0.00191734
0.00188578
0.00185449
0.00182369
0.00179359
0.00176439
0.00173629
0.00170944
0.001684
0.00166007
0.00163766
0.00161666
0.00159688
0.00157804
0.0015597
0.00154127
0.00152215
0.001502
0.00148043
0.00145705
0.00143161
0.00140402
0.00137434
0.00134271
0.00130941
0.00127469
0.00123884
0.00120218
0.00116499
0.00112744
0.00108955
0.00105112
0.0010118
0.000971075
0.000928317
0.000882919
0.000835474
0.000179762
0.000413078
0.000624607
0.00079221
0.000921087
0.00101859
0.001091
0.00114358
0.00118096
0.00120743
0.00122704
0.00124344
0.00125978
0.00127847
0.00130115
0.00132871
0.00136144
0.00139925
0.00144175
0.00148844
0.00153878
0.00159219
0.00164812
0.00170602
0.00176539
0.00182574
0.00188662
0.0019476
0.00200831
0.00206837
0.00212747
0.00218533
0.00224169
0.00229632
0.00234905
0.00239972
0.0024482
0.00249439
0.00253826
0.00257975
0.00261888
0.00265567
0.00269019
0.00272253
0.00275278
0.0027811
0.00280762
0.00283254
0.00285602
0.00287827
0.00289948
0.00291986
0.00293962
0.00295895
0.00297804
0.00299705
0.00301616
0.00303549
0.00305515
0.00307525
0.00309585
0.00311698
0.00313865
0.00316086
0.00318355
0.00320675
0.00323047
0.00325464
0.00327918
0.00330398
0.00332891
0.00335385
0.00337865
0.00340316
0.00342723
0.00345072
0.00347346
0.00349531
0.00351611
0.00353572
0.00355397
0.00357074
0.00358588
0.00359924
0.00361069
0.00362011
0.00362738
0.00363241
0.00363511
0.00363542
0.0036333
0.00362872
0.0036217
0.00361224
0.00360035
0.00358606
0.00356934
0.00355012
0.00352829
0.00350364
0.00347594
0.00344491
0.00341028
0.00337188
0.00332969
0.00328393
0.00323508
0.00318387
0.00313141
0.0030788
0.00302706
0.00297708
0.00292958
0.00288505
0.0028438
0.0028059
0.00277127
0.00273967
0.00271078
0.00268421
0.00265954
0.00263635
0.00261424
0.0025928
0.00257168
0.00255055
0.00252913
0.00250714
0.00248463
0.0024614
0.00243723
0.00241197
0.00238551
0.00235778
0.00232874
0.00229839
0.00226674
0.00223386
0.00219981
0.0021647
0.00212867
0.00209188
0.00205452
0.0020168
0.00197895
0.00194122
0.00190389
0.00186724
0.00183156
0.00179715
0.00176427
0.0017332
0.00170416
0.00167728
0.00165259
0.00163001
0.00160928
0.00159
0.00157157
0.00155326
0.00153434
0.00151426
0.00149239
0.00146824
0.0014415
0.00141205
0.00137993
0.00134537
0.00130874
0.0012705
0.00123122
0.00119146
0.00115165
0.00111201
0.00107245
0.00103266
0.000992092
0.000950122
0.000906201
0.000860499
0.000184453
0.00042528
0.000645954
0.000823306
0.000962223
0.00107007
0.00115313
0.00121655
0.00126479
0.00130187
0.00133151
0.0013571
0.00138159
0.00140733
0.00143601
0.00146866
0.00150577
0.00154736
0.00159316
0.00164272
0.00169551
0.00175096
0.00180851
0.00186761
0.00192775
0.00198846
0.00204929
0.00210986
0.00216978
0.00222872
0.00228637
0.00234248
0.00239679
0.00244911
0.00249925
0.00254707
0.00259246
0.00263533
0.00267564
0.00271337
0.00274853
0.00278117
0.00281136
0.0028392
0.00286484
0.00288842
0.00291011
0.00293012
0.00294866
0.00296594
0.00298219
0.00299763
0.0030125
0.00302701
0.00304136
0.00305575
0.00307035
0.00308531
0.00310076
0.0031168
0.00313351
0.00315093
0.00316908
0.00318796
0.00320752
0.00322778
0.00324871
0.00327025
0.00329235
0.0033149
0.00333779
0.00336092
0.00338416
0.0034074
0.00343052
0.0034534
0.00347592
0.00349798
0.00351945
0.00354022
0.00356018
0.00357921
0.0035972
0.00361401
0.00362952
0.0036436
0.00365612
0.00366693
0.00367593
0.00368298
0.00368798
0.00369084
0.00369151
0.00368991
0.00368602
0.0036798
0.0036712
0.00366013
0.00364648
0.00363004
0.00361056
0.00358772
0.00356116
0.00353059
0.0034958
0.00345675
0.0034137
0.00336718
0.00331822
0.00326787
0.00321716
0.00316708
0.00311851
0.00307216
0.00302852
0.00298789
0.00295035
0.00291579
0.002884
0.00285463
0.0028273
0.0028016
0.00277709
0.00275337
0.00273003
0.00270672
0.00268312
0.00265892
0.00263397
0.00260822
0.00258141
0.00255335
0.0025239
0.00249296
0.00246046
0.00242639
0.00239074
0.00235356
0.0023149
0.00227488
0.00223361
0.00219127
0.00214803
0.00210414
0.00205984
0.00201542
0.0019712
0.00192753
0.0018848
0.00184338
0.00180369
0.00176613
0.00173107
0.00169882
0.00166958
0.00164339
0.00162015
0.00159949
0.00158083
0.00156337
0.00154607
0.00152811
0.00150863
0.00148683
0.00146213
0.00143414
0.00140273
0.00136801
0.00133033
0.00129032
0.0012488
0.00120664
0.00116464
0.0011233
0.00108273
0.00104265
0.00100252
0.000961646
0.000919465
0.000875875
0.00018622
0.000431678
0.000659735
0.000845864
0.000994351
0.00111236
0.00120605
0.00128044
0.00133975
0.00138775
0.00142782
0.00146305
0.00149613
0.00152928
0.00156418
0.00160195
0.00164317
0.00168803
0.0017364
0.00178793
0.00184217
0.00189859
0.00195669
0.00201593
0.00207585
0.00213598
0.00219592
0.00225528
0.00231371
0.00237089
0.00242653
0.00248039
0.00253222
0.00258184
0.00262907
0.00267379
0.00271588
0.00275528
0.00279193
0.00282584
0.00285703
0.00288556
0.00291152
0.00293502
0.00295621
0.00297527
0.00299239
0.00300778
0.00302167
0.00303431
0.00304594
0.0030568
0.00306713
0.00307717
0.00308715
0.00309725
0.00310767
0.00311856
0.00313006