/*--------------------------------*- C++ -*----------------------------------*\
  =========                 |
  \\      /  F ield         | OpenFOAM: The Open Source CFD Toolbox
   \\    /   O peration     | Website:  https://openfoam.org
    \\  /    A nd           | Version:  9
     \\/     M anipulation  |
\*---------------------------------------------------------------------------*/
FoamFile
{
    format      ascii;
    class       volScalarField;
    location    "0.14";
    object      p;
}
// * * * * * * * * * * * * * * * * * * * * * * * * * * * * * * * * * * * * * //

dimensions      [0 2 -2 0 0 0 0];

internalField   nonuniform List<scalar> 
12225
(
0.900826
0.576975
0.480789
0.468018
0.46181
0.459417
0.462473
0.468892
0.477364
0.487654
0.499651
0.513159
0.52798
0.5439
0.560802
0.57809
0.596481
0.599802
0.480489
0.491007
0.477363
0.470795
0.464887
0.462274
0.465023
0.471297
0.479793
0.490214
0.502401
0.516137
0.531217
0.547446
0.564821
0.583008
0.604518
0.634945
0.451409
0.501313
0.48395
0.473984
0.468444
0.46603
0.46851
0.474568
0.483044
0.493598
0.50603
0.520097
0.535607
0.552409
0.570652
0.590177
0.614734
0.654166
0.485611
0.508178
0.485555
0.475231
0.470625
0.468723
0.471181
0.477137
0.485612
0.496279
0.508927
0.523318
0.539277
0.556705
0.575831
0.596776
0.622838
0.659888
0.49239
0.501853
0.483251
0.474937
0.471375
0.470135
0.472757
0.478693
0.48716
0.497869
0.51062
0.525194
0.541427
0.559236
0.578811
0.600385
0.626303
0.658414
0.486443
0.493146
0.480162
0.473766
0.471098
0.470541
0.473383
0.479304
0.487707
0.498345
0.511036
0.525574
0.541791
0.559573
0.578982
0.600182
0.624722
0.651881
0.480686
0.4861
0.476993
0.471956
0.470034
0.47009
0.473123
0.478982
0.487224
0.497643
0.510069
0.524299
0.540144
0.557421
0.576031
0.595974
0.618169
0.640478
0.476294
0.480147
0.473564
0.469588
0.468285
0.468832
0.471978
0.477688
0.485644
0.495665
0.507589
0.521207
0.536287
0.552563
0.569778
0.587738
0.606853
0.624469
0.472101
0.474555
0.469802
0.466719
0.465897
0.466787
0.469941
0.475389
0.482907
0.492333
0.5035
0.516182
0.530099
0.544902
0.560194
0.575608
0.591181
0.604352
0.467666
0.469121
0.465735
0.463381
0.462901
0.46398
0.467015
0.472072
0.478988
0.487611
0.497763
0.509193
0.521576
0.534488
0.54743
0.559908
0.571723
0.580706
0.462944
0.463751
0.461348
0.45956
0.459288
0.4604
0.463182
0.467704
0.473845
0.481456
0.490342
0.500228
0.510747
0.521425
0.5317
0.541005
0.549026
0.554056
0.458442
0.458846
0.457064
0.455662
0.455477
0.456492
0.458922
0.462828
0.46811
0.474616
0.482137
0.490376
0.498941
0.507332
0.514963
0.521247
0.525834
0.527361
0.453779
0.45388
0.452548
0.4514
0.451191
0.451995
0.453962
0.457142
0.461443
0.46671
0.472718
0.479154
0.485612
0.491583
0.496488
0.499756
0.501022
0.49921
0.448008
0.44791
0.446896
0.445887
0.445523
0.445935
0.447227
0.449424
0.452444
0.456121
0.460222
0.464425
0.468323
0.471424
0.473187
0.473094
0.470807
0.465533
0.440953
0.440749
0.439892
0.438867
0.438178
0.43798
0.438341
0.439266
0.440669
0.442383
0.444173
0.445725
0.446653
0.44651
0.444825
0.44116
0.435248
0.426487
0.432424
0.432164
0.43129
0.430046
0.428813
0.427744
0.426883
0.426214
0.425648
0.425026
0.424122
0.42265
0.42027
0.416607
0.411281
0.403955
0.394457
0.382314
0.422304
0.421995
0.420928
0.419224
0.417188
0.414963
0.412577
0.410002
0.407154
0.403888
0.400008
0.395272
0.389407
0.382126
0.373152
0.362254
0.349358
0.334091
0.410691
0.410303
0.408865
0.406437
0.403312
0.399638
0.395443
0.390703
0.385348
0.379263
0.372294
0.364258
0.354958
0.344196
0.331791
0.317607
0.301652
0.283637
0.398227
0.397719
0.395714
0.392268
0.387737
0.382315
0.376049
0.368936
0.360938
0.351985
0.341976
0.330794
0.318321
0.304443
0.289068
0.272137
0.253725
0.233637
0.389318
0.388712
0.386089
0.38159
0.375733
0.36878
0.360801
0.35182
0.341833
0.3308
0.318659
0.305337
0.290764
0.274877
0.257624
0.238985
0.219045
0.197697
0.384622
0.383963
0.380754
0.375284
0.368308
0.360147
0.350884
0.340571
0.329228
0.316834
0.303346
0.28872
0.272912
0.255887
0.237618
0.218097
0.197405
0.175483
0.382601
0.382001
0.378138
0.371628
0.363595
0.354379
0.344056
0.332707
0.320367
0.307015
0.292617
0.277142
0.260567
0.242869
0.224033
0.20406
0.183021
0.160893
0.382516
0.382267
0.377651
0.370005
0.360982
0.350838
0.339631
0.327492
0.31445
0.300465
0.285502
0.269538
0.252557
0.234543
0.215486
0.195386
0.174302
0.152243
0.383783
0.384359
0.378759
0.369893
0.359979
0.348989
0.337019
0.32428
0.310766
0.296397
0.281132
0.26495
0.247834
0.22977
0.210745
0.190756
0.169847
0.148049
0.386532
0.388578
0.381163
0.370877
0.360168
0.348342
0.335671
0.322478
0.308672
0.294112
0.278749
0.262559
0.24552
0.227612
0.208819
0.189126
0.168565
0.147184
0.390609
0.39624
0.385118
0.372704
0.361125
0.348396
0.335057
0.321533
0.307583
0.292995
0.277707
0.261684
0.244896
0.227315
0.208916
0.189677
0.169608
0.148771
0.387026
0.405324
0.390146
0.374994
0.362222
0.348496
0.334601
0.320909
0.306983
0.292536
0.277497
0.261805
0.245423
0.228317
0.210452
0.191795
0.172336
0.152138
0.353417
0.402379
0.391367
0.376267
0.362392
0.347717
0.333588
0.320049
0.30641
0.292326
0.277757
0.262575
0.246754
0.230257
0.213041
0.195065
0.176302
0.156788
0.355221
0.384528
0.384106
0.374961
0.361076
0.345702
0.33174
0.318742
0.305685
0.29218
0.278268
0.263731
0.248572
0.232759
0.216241
0.198975
0.180926
0.162109
0.766971
0.493446
0.397347
0.376719
0.361085
0.344998
0.331102
0.31844
0.305775
0.292794
0.279198
0.265051
0.250306
0.234929
0.218866
0.202065
0.184491
0.166168
-1.03041
-1.02075
-1.02457
-1.04792
-1.08723
-1.13655
-1.18992
-1.24156
-1.2862
-1.31946
-1.33978
-1.35045
-1.35497
-1.35646
-1.3578
-1.36174
-1.37013
-1.38379
-1.40283
-1.4272
-1.45697
-1.49232
-1.53357
-1.58116
-1.63568
-1.69784
-1.7688
-1.84985
-1.94187
-2.04554
-2.16146
-2.29001
-2.43142
-2.58569
-2.7526
-2.93172
-3.12239
-3.32379
-3.53492
-3.75466
-3.98179
-4.21502
-4.453
-4.69436
-4.93769
-5.18159
-5.42464
-5.66539
-5.90241
-6.13422
-6.35936
-6.57633
-6.7836
-6.97966
-7.16298
-7.33203
-7.48534
-7.62144
-7.73895
-7.83663
-7.9135
-7.96898
-8.00279
-8.01386
-7.99934
-7.95669
-7.88574
-7.78769
-7.6635
-7.51406
-7.34043
-7.14391
-6.92603
-6.68859
-6.43364
-6.16342
-5.88038
-5.58711
-5.28629
-4.98066
-4.67295
-4.36586
-4.06195
-3.76369
-3.47331
-3.19285
-2.92411
-2.66861
-2.42758
-2.20198
-1.99245
-1.79938
-1.62291
-1.46298
-1.31933
-1.19157
-1.07921
-0.981625
-0.898165
-0.828116
-0.770739
-0.725288
-0.691019
-0.667194
-0.653088
-0.647984
-0.651191
-0.66209
-0.680074
-0.704411
-0.733509
-0.767028
-0.804365
-0.8448
-0.887577
-0.931929
-0.97709
-1.0223
-1.06682
-1.10994
-1.15096
-1.18924
-1.22421
-1.25529
-1.28188
-1.30356
-1.31964
-1.32992
-1.33416
-1.33214
-1.32372
-1.30877
-1.28722
-1.25903
-1.2244
-1.18323
-1.13272
-1.07759
-1.02266
-0.961582
-0.894051
-0.822112
-0.745427
-0.666196
-0.584386
-0.497022
-0.399735
-0.320842
-0.248187
-0.157281
-0.0709272
0.0172702
0.0922296
0.155854
0.229147
0.291486
0.343008
0.394701
0.434314
0.464476
0.488521
0.504323
0.510629
0.510464
0.493494
0.4794
0.452031
0.416455
0.391226
0.355124
0.314126
0.271672
0.229477
0.189282
0.153037
0.123246
0.103078
0.0936246
0.101743
0.126517
-1.10585
-1.09611
-1.11056
-1.14642
-1.19175
-1.23981
-1.28672
-1.32911
-1.36424
-1.39015
-1.40369
-1.40163
-1.38664
-1.36473
-1.34291
-1.32707
-1.32085
-1.32512
-1.33875
-1.3598
-1.38656
-1.4184
-1.45558
-1.49899
-1.55001
-1.60973
-1.67883
-1.75847
-1.84986
-1.95392
-2.07127
-2.20233
-2.34722
-2.5058
-2.67768
-2.86222
-3.05858
-3.26574
-3.48256
-3.7078
-3.94019
-4.17838
-4.42104
-4.66682
-4.91438
-5.16236
-5.40942
-5.6542
-5.89534
-6.13144
-6.36109
-6.58284
-6.79523
-6.99676
-7.18592
-7.36117
-7.52099
-7.66385
-7.78819
-7.89252
-7.97533
-8.03514
-8.07044
-8.08006
-8.06416
-8.02378
-7.95876
-7.86819
-7.75198
-7.61061
-7.44488
-7.25592
-7.04513
-6.81419
-6.56501
-6.29975
-6.02075
-5.7305
-5.43163
-5.12682
-4.81875
-4.51011
-4.2035
-3.90138
-3.60608
-3.31971
-3.04418
-2.78113
-2.53194
-2.29771
-2.07925
-1.87711
-1.69159
-1.52275
-1.3705
-1.23457
-1.11454
-1.00991
-0.920076
-0.844354
-0.782022
-0.73232
-0.694474
-0.667696
-0.651196
-0.644191
-0.645903
-0.655509
-0.672104
-0.694898
-0.723823
-0.757616
-0.795452
-0.836551
-0.880125
-0.925384
-0.971542
-1.01782
-1.06346
-1.10772
-1.14989
-1.1893
-1.22529
-1.25728
-1.28477
-1.30718
-1.32433
-1.33576
-1.34117
-1.34036
-1.33314
-1.31941
-1.29914
-1.27238
-1.2393
-1.20039
-1.15801
-1.10941
-1.0491
-0.98379
-0.916511
-0.84469
-0.769538
-0.690395
-0.607786
-0.525388
-0.446502
-0.355395
-0.263088
-0.184557
-0.101837
-0.0229492
0.0564722
0.132301
0.19548
0.257036
0.314467
0.360428
0.40178
0.433228
0.45695
0.471349
0.478016
0.473751
0.471225
0.45169
0.431245
0.406949
0.36975
0.330987
0.290621
0.249517
0.208952
0.170531
0.136128
0.107774
0.0878634
0.0810056
0.0898023
0.113254
-1.1728
-1.17626
-1.1947
-1.2268
-1.26442
-1.30185
-1.33584
-1.36405
-1.38463
-1.39624
-1.39818
-1.39024
-1.37405
-1.35317
-1.33214
-1.31514
-1.30499
-1.30274
-1.30814
-1.32058
-1.33979
-1.36599
-1.39986
-1.44246
-1.49507
-1.55891
-1.63483
-1.72344
-1.82518
-1.94032
-2.06892
-2.21084
-2.36573
-2.53306
-2.71218
-2.90228
-3.10249
-3.31185
-3.52937
-3.75402
-3.98473
-4.22043
-4.46003
-4.70242
-4.94646
-5.191
-5.43486
-5.67681
-5.91561
-6.14993
-6.37846
-6.59979
-6.8125
-7.01514
-7.20621
-7.38421
-7.54762
-7.69494
-7.82468
-7.93541
-8.0257
-8.09412
-8.1391
-8.15932
-8.15431
-8.12409
-8.06852
-7.98727
-7.88035
-7.74809
-7.59117
-7.41054
-7.20748
-6.98353
-6.74049
-6.48039
-6.20547
-5.91814
-5.62094
-5.31649
-5.00745
-4.69648
-4.38618
-4.07908
-3.77754
-3.48378
-3.19981
-2.92741
-2.66812
-2.42318
-2.19361
-1.9801
-1.78315
-1.60298
-1.43966
-1.29305
-1.16291
-1.04881
-0.950251
-0.86663
-0.797267
-0.741427
-0.698332
-0.667171
-0.647115
-0.637327
-0.636965
-0.645132
-0.660857
-0.683328
-0.711996
-0.745926
-0.784226
-0.826038
-0.870518
-0.916836
-0.964174
-1.01173
-1.05873
-1.10441
-1.14805
-1.18895
-1.22647
-1.25999
-1.289
-1.31302
-1.33173
-1.34473
-1.35171
-1.35245
-1.34677
-1.33457
-1.31579
-1.29048
-1.25865
-1.22034
-1.17716
-1.12897
-1.07268
-1.01051
-0.944566
-0.874012
-0.799921
-0.722299
-0.641375
-0.559181
-0.477662
-0.388746
-0.301589
-0.221076
-0.139398
-0.0601249
0.0195355
0.0923709
0.157196
0.220277
0.275492
0.324819
0.3668
0.399368
0.424096
0.439976
0.447436
0.445389
0.439287
0.424189
0.403608
0.380492
0.347098
0.310817
0.272614
0.233562
0.195048
0.158679
0.126293
0.0999296
0.0821007
0.0740741
0.0799844
0.0968401
-1.18836
-1.20788
-1.22833
-1.2544
-1.28368
-1.31227
-1.33742
-1.35727
-1.37046
-1.37616
-1.37415
-1.36516
-1.35101
-1.33434
-1.31813
-1.30503
-1.29693
-1.29492
-1.29968
-1.31179
-1.33197
-1.3611
-1.4001
-1.44984
-1.51107
-1.58437
-1.67008
-1.76838
-1.87924
-2.00252
-2.13797
-2.28523
-2.44387
-2.61336
-2.79316
-2.98262
-3.18108
-3.38783
-3.60212
-3.82314
-4.05006
-4.28201
-4.51807
-4.75728
-4.99863
-5.24108
-5.48351
-5.72475
-5.96358
-6.19873
-6.42885
-6.65254
-6.86834
-7.07476
-7.27023
-7.45319
-7.62202
-7.77513
-7.91093
-8.02788
-8.12451
-8.19941
-8.25126
-8.27898
-8.28186
-8.25936
-8.21102
-8.13653
-8.03588
-7.90933
-7.75747
-7.58118
-7.38164
-7.16033
-6.91899
-6.6596
-6.38437
-6.09569
-5.7961
-5.48823
-5.17478
-4.85846
-4.54193
-4.22779
-3.9185
-3.61637
-3.32354
-3.0419
-2.7731
-2.51853
-2.2793
-2.05624
-1.84992
-1.66066
-1.48861
-1.33369
-1.1957
-1.07427
-0.968924
-0.879098
-0.804138
-0.743336
-0.695935
-0.661136
-0.638112
-0.626012
-0.62396
-0.63103
-0.646309
-0.668885
-0.69793
-0.732536
-0.771777
-0.814745
-0.860553
-0.908328
-0.95722
-1.0064
-1.05506
-1.10243
-1.14777
-1.19038
-1.2296
-1.26484
-1.29557
-1.32131
-1.34168
-1.35631
-1.36489
-1.3672
-1.36305
-1.35235
-1.33507
-1.31122
-1.28084
-1.244
-1.20131
-1.15311
-1.09859
-1.0385
-0.973785
-0.904393
-0.831164
-0.754487
-0.674777
-0.593091
-0.509916
-0.423373
-0.339003
-0.257166
-0.175763
-0.09591
-0.0172847
0.0545969
0.121029
0.184118
0.239497
0.290624
0.333075
0.366699
0.392796
0.410068
0.417738
0.417169
0.410506
0.398677
0.37871
0.35649
0.326977
0.293176
0.256917
0.219609
0.182737
0.147907
0.116895
0.09155
0.0738589
0.0652477
0.0679401
0.0800052
-1.12481
-1.1623
-1.189
-1.21529
-1.24187
-1.26649
-1.28732
-1.30326
-1.31343
-1.31783
-1.3168
-1.31133
-1.303
-1.29374
-1.28562
-1.28047
-1.27978
-1.28475
-1.29641
-1.31576
-1.3438
-1.38147
-1.42959
-1.4888
-1.5595
-1.64192
-1.73611
-1.84198
-1.95937
-2.08802
-2.22765
-2.37793
-2.53847
-2.70887
-2.88868
-3.07742
-3.27458
-3.47958
-3.69183
-3.91068
-4.13543
-4.36533
-4.59959
-4.83735
-5.07769
-5.31963
-5.56211
-5.80402
-6.04416
-6.28126
-6.51398
-6.74089
-6.96052
-7.17131
-7.37167
-7.55995
-7.73448
-7.89357
-8.03557
-8.15883
-8.26179
-8.34295
-8.40095
-8.43464
-8.44313
-8.42567
-8.38168
-8.31081
-8.213
-8.08846
-7.93772
-7.76162
-7.56131
-7.33825
-7.09417
-6.83108
-6.55121
-6.25701
-5.95107
-5.6361
-5.31489
-4.99024
-4.66493
-4.34167
-4.02303
-3.71146
-3.4092
-3.11825
-2.84037
-2.57704
-2.32946
-2.0985
-1.88479
-1.68869
-1.51033
-1.34966
-1.20644
-1.0803
-0.970717
-0.877107
-0.798794
-0.73506
-0.685147
-0.648267
-0.623605
-0.610323
-0.607547
-0.614358
-0.629822
-0.652991
-0.682938
-0.718704
-0.759325
-0.803851
-0.851349
-0.900912
-0.951654
-1.00272
-1.05327
-1.10253
-1.14973
-1.19417
-1.23519
-1.27218
-1.30461
-1.332
-1.35396
-1.37011
-1.38015
-1.38386
-1.38107
-1.37167
-1.35564
-1.333
-1.3038
-1.26816
-1.22644
-1.17874
-1.12499
-1.06592
-1.00196
-0.933326
-0.860722
-0.784565
-0.705453
-0.624164
-0.540986
-0.455719
-0.371657
-0.289302
-0.207764
-0.127831
-0.0499781
0.022464
0.0897021
0.15262
0.208986
0.260153
0.303047
0.337565
0.364511
0.382759
0.391533
0.392414
0.387098
0.376442
0.35817
0.336642
0.309067
0.277078
0.242418
0.206573
0.17104
0.137404
0.107355
0.0825895
0.064803
0.0553992
0.0552183
0.0640848
-0.996607
-1.0465
-1.08621
-1.11883
-1.14762
-1.17271
-1.1934
-1.20918
-1.22045
-1.22733
-1.2307
-1.23178
-1.232
-1.2329
-1.23592
-1.2424
-1.2535
-1.27029
-1.29378
-1.32495
-1.36473
-1.4139
-1.4731
-1.54277
-1.62318
-1.71442
-1.81645
-1.92915
-2.05234
-2.18577
-2.32921
-2.48237
-2.64495
-2.81665
-2.99713
-3.186
-3.38288
-3.58732
-3.79884
-4.01692
-4.24096
-4.47034
-4.70435
-4.94221
-5.18308
-5.42603
-5.67005
-5.91407
-6.15688
-6.39722
-6.63374
-6.86498
-7.08942
-7.30545
-7.51141
-7.70558
-7.8862
-8.0515
-8.19972
-8.32912
-8.43803
-8.52485
-8.58812
-8.62657
-8.63915
-8.62499
-8.58343
-8.51405
-8.41674
-8.29166
-8.13931
-7.96051
-7.75643
-7.52852
-7.27855
-7.0086
-6.72095
-6.41813
-6.10284
-5.7779
-5.44623
-5.11075
-4.77439
-4.43999
-4.11027
-3.78779
-3.47492
-3.17378
-2.88624
-2.61386
-2.35788
-2.11926
-1.89864
-1.69638
-1.51263
-1.34728
-1.20008
-1.07059
-0.958252
-0.862397
-0.782298
-0.717181
-0.666246
-0.628679
-0.603652
-0.590323
-0.587821
-0.595232
-0.611609
-0.635983
-0.667379
-0.7048
-0.747247
-0.79373
-0.843279
-0.894948
-0.947819
-1.00101
-1.05366
-1.10497
-1.15416
-1.20051
-1.24337
-1.28212
-1.31622
-1.3452
-1.36864
-1.38621
-1.39759
-1.40255
-1.40094
-1.39267
-1.37768
-1.35602
-1.32773
-1.29295
-1.25196
-1.2049
-1.15184
-1.09335
-1.02986
-0.961709
-0.88949
-0.813674
-0.734813
-0.653605
-0.570508
-0.485909
-0.401818
-0.318895
-0.237036
-0.156903
-0.0793203
-0.00638082
0.0616074
0.124736
0.181771
0.232934
0.276277
0.311552
0.339122
0.358203
0.368383
0.370831
0.366774
0.356869
0.340165
0.319263
0.292972
0.262416
0.229124
0.194545
0.160157
0.127503
0.0981946
0.0738121
0.0558583
0.0455648
0.043031
0.049627
-0.828503
-0.892043
-0.94543
-0.98642
-1.02011
-1.04858
-1.07215
-1.09125
-1.10641
-1.11852
-1.12876
-1.13844
-1.14893
-1.16151
-1.17729
-1.19726
-1.22227
-1.25315
-1.29069
-1.33567
-1.38878
-1.45061
-1.52163
-1.60216
-1.69237
-1.79234
-1.90204
-2.02138
-2.15024
-2.28844
-2.43583
-2.5922
-2.75735
-2.93107
-3.11311
-3.30321
-3.50106
-3.70633
-3.91864
-4.13755
-4.36257
-4.59313
-4.82861
-5.06829
-5.31139
-5.55701
-5.80419
-6.05185
-6.2988
-6.54376
-6.78537
-7.02212
-7.25245
-7.47468
-7.68708
-7.88784
-8.07511
-8.24702
-8.4017
-8.53731
-8.65205
-8.74423
-8.81226
-8.85474
-8.87053
-8.85862
-8.81825
-8.74895
-8.65055
-8.52316
-8.36728
-8.18373
-7.97366
-7.73859
-7.48033
-7.20103
-6.90308
-6.58911
-6.26195
-5.92457
-5.58003
-5.23141
-4.8818
-4.5342
-4.19149
-3.85638
-3.53138
-3.21874
-2.92041
-2.63807
-2.37301
-2.12624
-1.89843
-1.68995
-1.50091
-1.33121
-1.18052
-1.04835
-0.934053
-0.8369
-0.756068
-0.690698
-0.639909
-0.602821
-0.578553
-0.56623
-0.564962
-0.573825
-0.591861
-0.618084
-0.651494
-0.691069
-0.73578
-0.784606
-0.836544
-0.890614
-0.945868
-1.00139
-1.05632
-1.10981
-1.16109
-1.20943
-1.25416
-1.29467
-1.33042
-1.36093
-1.38581
-1.40469
-1.4173
-1.4234
-1.42284
-1.41553
-1.40144
-1.38058
-1.35302
-1.3189
-1.27845
-1.23188
-1.17934
-1.12129
-1.05815
-0.990303
-0.91829
-0.842613
-0.763817
-0.682543
-0.599353
-0.5149
-0.430576
-0.347112
-0.264812
-0.184346
-0.106643
-0.0331651
0.035508
0.0990616
0.156677
0.20806
0.251901
0.287878
0.316084
0.336012
0.347462
0.351267
0.348353
0.339288
0.323874
0.303714
0.27851
0.249189
0.217102
0.18364
0.150245
0.118418
0.0896971
0.0655711
0.0473787
0.0362452
0.031835
0.0367734
-0.651038
-0.72532
-0.790964
-0.840447
-0.88007
-0.913517
-0.941929
-0.966143
-0.987185
-1.00627
-1.02474
-1.04398
-1.06531
-1.08985
-1.11851
-1.15203
-1.19103
-1.23607
-1.28768
-1.3464
-1.41268
-1.48694
-1.5695
-1.66059
-1.76037
-1.86891
-1.98622
-2.11228
-2.24703
-2.3904
-2.5423
-2.70262
-2.87125
-3.04806
-3.23289
-3.42556
-3.62585
-3.8335
-4.04821
-4.26961
-4.49729
-4.73073
-4.96937
-5.21256
-5.45952
-5.70943
-5.96131
-6.2141
-6.46662
-6.71758
-6.96556
-7.20904
-7.44639
-7.67586
-7.89566
-8.10386
-8.29854
-8.4777
-8.63936
-8.78156
-8.90238
-9
-9.0727
-9.11898
-9.13755
-9.1273
-9.08739
-9.01726
-8.91668
-8.78574
-8.6249
-8.43499
-8.21719
-7.97305
-7.70449
-7.41371
-7.10323
-6.77582
-6.43446
-6.08227
-5.72251
-5.35844
-4.99332
-4.63036
-4.27261
-3.92296
-3.58407
-3.25833
-2.94783
-2.65431
-2.37917
-2.12346
-1.88786
-1.67276
-1.47826
-1.30419
-1.15019
-1.01569
-0.899958
-0.802165
-0.721385
-0.656646
-0.606962
-0.571347
-0.548836
-0.538485
-0.539357
-0.550494
-0.570917
-0.599628
-0.635606
-0.677811
-0.725197
-0.776717
-0.831342
-0.888067
-0.945917
-1.00396
-1.06129
-1.11708
-1.17052
-1.22089
-1.26752
-1.30979
-1.34716
-1.37916
-1.4054
-1.42553
-1.43927
-1.44641
-1.44679
-1.44033
-1.427
-1.40682
-1.37986
-1.34626
-1.30625
-1.26004
-1.20787
-1.15012
-1.0872
-1.0195
-0.947541
-0.871833
-0.792924
-0.71144
-0.628006
-0.543373
-0.458638
-0.374572
-0.291701
-0.210739
-0.132628
-0.0585229
0.0108535
0.0749809
0.1332
0.184986
0.229395
0.266067
0.294955
0.315727
0.328301
0.3333
0.331463
0.323308
0.309022
0.289702
0.265519
0.237319
0.206326
0.17387
0.141355
0.110239
0.0819973
0.0580456
0.0395976
0.0277327
0.021855
0.0255783
-0.486607
-0.56784
-0.642965
-0.69972
-0.745025
-0.783805
-0.817749
-0.847971
-0.875738
-0.902433
-0.929477
-0.958254
-0.990011
-1.02577
-1.06633
-1.11225
-1.16398
-1.22187
-1.28627
-1.35747
-1.43577
-1.52143
-1.61467
-1.71567
-1.82454
-1.94139
-2.06626
-2.19918
-2.34017
-2.48922
-2.64632
-2.81143
-2.98453
-3.16553
-3.35437
-3.55092
-3.75504
-3.96652
-4.18513
-4.41057
-4.64246
-4.88036
-5.12375
-5.37199
-5.62438
-5.88009
-6.13816
-6.39755
-6.65706
-6.91538
-7.17106
-7.42254
-7.66812
-7.906
-8.13427
-8.35094
-8.55396
-8.74122
-8.91061
-9.06004
-9.18746
-9.29092
-9.36855
-9.41871
-9.44
-9.43121
-9.39138
-9.31987
-9.21639
-9.08098
-8.91409
-8.71655
-8.48957
-8.23476
-7.95411
-7.64993
-7.32489
-6.98189
-6.62409
-6.25482
-5.87752
-5.49567
-5.11276
-4.7322
-4.35727
-3.99104
-3.63636
-3.29578
-2.97154
-2.66549
-2.37911
-2.1135
-1.86938
-1.64713
-1.44683
-1.26826
-1.11099
-0.974363
-0.857562
-0.759632
-0.679525
-0.616144
-0.568367
-0.535082
-0.515207
-0.507701
-0.511547
-0.525728
-0.549228
-0.581029
-0.620094
-0.665371
-0.715798
-0.770317
-0.82788
-0.887463
-0.948072
-1.00875
-1.0686
-1.12675
-1.1824
-1.23483
-1.28335
-1.32736
-1.36632
-1.39978
-1.42732
-1.44862
-1.46342
-1.47151
-1.47274
-1.46703
-1.45436
-1.43476
-1.4083
-1.37513
-1.33547
-1.28955
-1.23762
-1.18005
-1.11722
-1.04954
-0.977501
-0.901624
-0.822458
-0.74063
-0.656806
-0.571766
-0.486458
-0.401678
-0.318087
-0.236451
-0.157703
-0.0828508
-0.0126872
0.0521524
0.111049
0.163394
0.208446
0.245833
0.275438
0.297041
0.310639
0.316724
0.315909
0.308695
0.29546
0.277046
0.253865
0.226729
0.196764
0.165245
0.133533
0.10305
0.0752216
0.0514048
0.0327279
0.0202558
0.0132541
0.0160721
-0.349044
-0.43384
-0.515031
-0.576831
-0.626657
-0.670174
-0.709346
-0.74542
-0.779765
-0.813805
-0.84894
-0.886485
-0.927605
-0.973242
-1.0241
-1.08066
-1.14326
-1.21213
-1.28747
-1.36944
-1.45821
-1.55394
-1.65675
-1.76678
-1.88414
-2.00893
-2.14122
-2.28108
-2.42858
-2.58376
-2.74666
-2.91732
-3.09575
-3.28194
-3.47586
-3.67747
-3.88665
-4.10327
-4.32713
-4.55799
-4.79552
-5.03932
-5.28889
-5.54365
-5.80291
-6.06586
-6.33156
-6.59896
-6.86686
-7.13391
-7.39865
-7.65944
-7.91454
-8.16206
-8.40001
-8.62629
-8.83874
-9.03511
-9.21317
-9.37068
-9.50545
-9.61537
-9.69844
-9.75283
-9.77706
-9.76978
-9.72993
-9.65677
-9.54992
-9.40941
-9.23564
-9.02945
-8.79208
-8.52522
-8.23091
-7.91162
-7.57013
-7.20954
-6.83319
-6.44463
-6.04751
-5.6456
-5.2426
-4.84219
-4.44787
-4.06297
-3.69054
-3.33332
-2.99371
-2.67369
-2.37484
-2.09831
-1.84486
-1.61487
-1.40838
-1.22511
-1.06455
-0.925946
-0.808357
-0.710699
-0.631787
-0.570375
-0.525191
-0.494976
-0.478506
-0.474616
-0.482181
-0.500103
-0.527313
-0.562758
-0.605382
-0.65412
-0.707907
-0.765676
-0.826372
-0.888962
-0.952439
-1.01584
-1.07824
-1.13878
-1.19665
-1.25112
-1.30151
-1.34723
-1.38774
-1.42259
-1.45138
-1.4738
-1.48959
-1.49855
-1.50055
-1.49552
-1.48343
-1.46433
-1.43831
-1.4055
-1.36612
-1.32041
-1.26864
-1.21115
-1.14832
-1.08056
-1.00835
-0.932204
-0.852674
-0.770391
-0.686046
-0.60042
-0.514389
-0.428768
-0.344306
-0.261815
-0.182224
-0.106475
-0.0354009
0.0302947
0.089983
0.143033
0.188817
0.226962
0.25732
0.279748
0.294301
0.301393
0.301561
0.295299
0.283085
0.265627
0.243458
0.217366
0.188403
0.157785
0.126837
0.0969462
0.0694976
0.0458084
0.0269516
0.0139935
0.00614907
0.00826722
-0.244273
-0.33002
-0.413355
-0.477627
-0.53038
-0.577438
-0.620851
-0.661915
-0.701998
-0.742478
-0.784663
-0.829765
-0.878845
-0.932764
-0.992167
-1.05749
-1.12903
-1.20694
-1.29135
-1.38235
-1.48001
-1.58442
-1.69566
-1.81383
-1.939
-2.07129
-2.21078
-2.35756
-2.51172
-2.67336
-2.84254
-3.01934
-3.20383
-3.39603
-3.59596
-3.80361
-4.01892
-4.24181
-4.4721
-4.70961
-4.95403
-5.205
-5.46207
-5.72468
-5.99215
-6.26369
-6.53838
-6.81515
-7.09278
-7.36992
-7.64505
-7.91649
-8.18242
-8.44088
-8.68977
-8.92688
-9.14993
-9.35654
-9.54432
-9.71089
-9.8539
-9.97107
-10.0602
-10.1194
-10.147
-10.1415
-10.1017
-10.0269
-9.91645
-9.77043
-9.5892
-9.37358
-9.12487
-8.84479
-8.5355
-8.19957
-7.83996
-7.45994
-7.06308
-6.65314
-6.23406
-5.80986
-5.38453
-4.96204
-4.54616
-4.1405
-3.74833
-3.37264
-3.016
-2.68054
-2.36795
-2.07947
-1.81588
-1.57754
-1.36445
-1.17627
-1.01238
-0.871912
-0.75378
-0.656755
-0.579491
-0.520579
-0.478581
-0.452071
-0.439667
-0.440061
-0.451996
-0.474273
-0.505748
-0.545324
-0.591917
-0.644451
-0.701856
-0.763069
-0.827035
-0.892719
-0.959115
-1.02525
-1.09021
-1.15312
-1.21317
-1.26964
-1.32186
-1.36922
-1.41122
-1.44739
-1.47737
-1.50083
-1.51754
-1.52731
-1.53001
-1.52559
-1.51403
-1.49538
-1.46973
-1.43723
-1.39809
-1.35255
-1.30089
-1.24343
-1.18054
-1.11264
-1.0402
-0.963708
-0.883739
-0.800921
-0.71595
-0.629603
-0.542723
-0.45614
-0.370661
-0.287144
-0.206515
-0.129702
-0.057564
0.00914622
0.0697725
0.12368
0.170302
0.209273
0.240434
0.263699
0.279167
0.287211
0.288332
0.283028
0.271824
0.255363
0.234231
0.209193
0.181237
0.151519
0.121326
0.0920143
0.0649397
0.0413924
0.0224142
0.00908028
0.000614873
0.0021655
-0.172202
-0.256411
-0.338124
-0.402354
-0.456349
-0.505563
-0.551963
-0.596825
-0.641465
-0.687165
-0.735116
-0.786406
-0.841986
-0.90264
-0.968962
-1.04137
-1.12012
-1.20537
-1.29721
-1.39568
-1.50083
-1.61269
-1.73131
-1.85675
-1.9891
-2.12843
-2.27484
-2.42843
-2.58932
-2.75761
-2.9334
-3.1168
-3.30789
-3.50675
-3.71342
-3.92793
-4.15026
-4.38034
-4.61807
-4.86325
-5.11565
-5.37493
-5.64065
-5.91228
-6.18917
-6.47053
-6.75545
-7.04284
-7.33149
-7.62
-7.9068
-8.19018
-8.46822
-8.73889
-8.99997
-9.24916
-9.48401
-9.70201
-9.90063
-10.0773
-10.2295
-10.3548
-10.4509
-10.5155
-10.547
-10.5437
-10.5043
-10.4279
-10.3139
-10.1622
-9.97316
-9.74761
-9.48686
-9.19268
-8.86734
-8.51354
-8.13439
-7.73336
-7.31424
-6.88107
-6.43805
-5.9895
-5.53974
-5.09303
-4.65349
-4.22501
-3.81116
-3.41517
-3.03984
-2.68747
-2.3599
-2.05842
-1.78385
-1.53656
-1.31648
-1.12319
-0.955935
-0.813709
-0.695269
-0.599207
-0.524
-0.468056
-0.429757
-0.407494
-0.399716
-0.404955
-0.421805
-0.44895
-0.485157
-0.52927
-0.580169
-0.636763
-0.697982
-0.762769
-0.830079
-0.898886
-0.96819
-1.03703
-1.10448
-1.16969
-1.23185
-1.29023
-1.34418
-1.3931
-1.43649
-1.47391
-1.50499
-1.52942
-1.54698
-1.55749
-1.56083
-1.55697
-1.54588
-1.52764
-1.50232
-1.47011
-1.43118
-1.38579
-1.3342
-1.27674
-1.21378
-1.14572
-1.07301
-0.99615
-0.915709
-0.832309
-0.746648
-0.659494
-0.571672
-0.484027
-0.397409
-0.312708
-0.230865
-0.152815
-0.0794441
-0.0115451
0.0501897
0.105122
0.152715
0.192608
0.224644
0.24878
0.265151
0.274119
0.276173
0.271827
0.261631
0.246201
0.226141
0.202186
0.175263
0.14647
0.11705
0.0883289
0.0616431
0.0382665
0.0192279
0.00561526
-0.00329973
-0.00224119
-0.128976
-0.208851
-0.286081
-0.348151
-0.40172
-0.451621
-0.499645
-0.547004
-0.594922
-0.644564
-0.696993
-0.753168
-0.813932
-0.879985
-0.951873
-1.02999
-1.11459
-1.20583
-1.30379
-1.4085
-1.51999
-1.63828
-1.7634
-1.8954
-2.03432
-2.18026
-2.3333
-2.49355
-2.66113
-2.83616
-3.01876
-3.20906
-3.40715
-3.61314
-3.82711
-4.04911
-4.27914
-4.51717
-4.76312
-5.01684
-5.27811
-5.54662
-5.82197
-6.10363
-6.39098
-6.68323
-6.97947
-7.27861
-7.57941
-7.88045
-8.1801
-8.47658
-8.76793
-9.05198
-9.32644
-9.58885
-9.83665
-10.0672
-10.2777
-10.4655
-10.6278
-10.7622
-10.866
-10.9368
-10.9728
-10.9723
-10.9337
-10.8561
-10.7387
-10.5814
-10.3845
-10.1488
-9.8756
-9.56679
-9.22469
-8.85213
-8.45239
-8.02912
-7.58637
-7.12841
-6.65977
-6.18507
-5.70899
-5.23613
-4.77096
-4.31773
-3.88033
-3.46228
-3.06663
-2.69591
-2.35209
-2.03657
-1.75022
-1.49338
-1.26592
-1.06732
-0.896682
-0.752815
-0.634295
-0.539511
-0.466733
-0.414172
-0.380011
-0.362449
-0.359751
-0.370285
-0.392484
-0.424897
-0.466196
-0.515156
-0.570612
-0.631454
-0.69661
-0.765033
-0.835696
-0.90759
-0.979733
-1.05118
-1.12101
-1.18839
-1.25253
-1.3127
-1.36825
-1.41862
-1.46329
-1.50185
-1.53393
-1.55925
-1.57757
-1.58874
-1.59267
-1.5893
-1.57865
-1.56077
-1.53577
-1.50381
-1.46508
-1.41982
-1.36831
-1.31086
-1.24782
-1.1796
-1.10663
-1.02942
-0.948505
-0.864518
-0.778146
-0.690146
-0.601335
-0.512567
-0.424719
-0.338713
-0.255508
-0.176059
-0.101283
-0.0320144
0.031015
0.0871546
0.135875
0.176816
0.209826
0.234894
0.252188
0.262077
0.265056
0.261666
0.252481
0.238107
0.219152
0.19632
0.170474
0.142651
0.114042
0.0859459
0.0596803
0.0365128
0.0174738
0.00366445
-0.00556807
-0.00496947
-0.10806
-0.181271
-0.251781
-0.309897
-0.361522
-0.410743
-0.459126
-0.507784
-0.557827
-0.610289
-0.666099
-0.726089
-0.790992
-0.861422
-0.937869
-1.0207
-1.11016
-1.20642
-1.30955
-1.4196
-1.53659
-1.66053
-1.79146
-1.9294
-2.0744
-2.22655
-2.38593
-2.55265
-2.72683
-2.9086
-3.0981
-3.29545
-3.50079
-3.71423
-3.93587
-4.16578
-4.40401
-4.65054
-4.90531
-5.16822
-5.43905
-5.71752
-6.00325
-6.29575
-6.59438
-6.89839
-7.20684
-7.51864
-7.83253
-8.14704
-8.46052
-8.77111
-9.07675
-9.3752
-9.66403
-9.94067
-10.2024
-10.4464
-10.6697
-10.8696
-11.043
-11.1872
-11.2995
-11.3774
-11.4186
-11.4214
-11.3842
-11.3058
-11.1855
-11.0229
-10.8183
-10.5726
-10.287
-9.96344
-9.60434
-9.21262
-8.79172
-8.34549
-7.87819
-7.39438
-6.89887
-6.39663
-5.8927
-5.39205
-4.89956
-4.41984
-3.95716
-3.51539
-3.09788
-2.70739
-2.34609
-2.0155
-1.71655
-1.44956
-1.21435
-1.01024
-0.83619
-0.690794
-0.572413
-0.4792
-0.409188
-0.36037
-0.330715
-0.318214
-0.320946
-0.337104
-0.364956
-0.40291
-0.449538
-0.503542
-0.563706
-0.628893
-0.698029
-0.77008
-0.844039
-0.918922
-0.993773
-1.06767
-1.13972
-1.20911
-1.27505
-1.33683
-1.39384
-1.44549
-1.49131
-1.53087
-1.56384
-1.58993
-1.60893
-1.62069
-1.62513
-1.6222
-1.61193
-1.59439
-1.56967
-1.53795
-1.49941
-1.45429
-1.40286
-1.34543
-1.28234
-1.21399
-1.1408
-1.06326
-0.981911
-0.897367
-0.810304
-0.721468
-0.631667
-0.541758
-0.452639
-0.365252
-0.280578
-0.199599
-0.123264
-0.0524531
0.0120586
0.0695957
0.119618
0.161755
0.195865
0.221953
0.240218
0.251048
0.254961
0.252529
0.244357
0.231057
0.213238
0.191569
0.166854
0.140059
0.11232
0.0848978
0.0590976
0.036185
0.0172023
0.00326348
-0.00618899
-0.00604614
-0.101547
-0.166045
-0.228073
-0.280822
-0.329272
-0.376708
-0.424451
-0.473493
-0.524805
-0.579279
-0.637705
-0.700785
-0.769138
-0.843288
-0.923661
-1.01059
-1.1043
-1.20495
-1.31265
-1.42743
-1.54934
-1.67839
-1.8146
-1.95803
-2.10871
-2.26673
-2.43217
-2.60514
-2.78577
-2.9742
-3.17056
-3.37501
-3.58769
-3.80873
-4.03825
-4.27634
-4.52306
-4.77843
-5.04242
-5.31493
-5.59579
-5.88472
-6.18138
-6.48527
-6.79579
-7.11216
-7.43347
-7.7586
-8.08627
-8.41497
-8.743
-9.06842
-9.38911
-9.70271
-10.0067
-10.2983
-10.5747
-10.8329
-11.0699
-11.2825
-11.4677
-11.6225
-11.7441
-11.8296
-11.8767
-11.8835
-11.8484
-11.7699
-11.6472
-11.4799
-11.2682
-11.0129
-10.7153
-10.3774
-10.0015
-9.5907
-9.14862
-8.67925
-8.18706
-7.67687
-7.15379
-6.62313
-6.09027
-5.56063
-5.03947
-4.53183
-4.04241
-3.57547
-3.13468
-2.72313
-2.34321
-1.99659
-1.68429
-1.40661
-1.1633
-0.953557
-0.776105
-0.629328
-0.511338
-0.420005
-0.353076
-0.308312
-0.283452
-0.276274
-0.284668
-0.306649
-0.340317
-0.383942
-0.436
-0.495116
-0.560019
-0.629535
-0.702596
-0.778179
-0.8553
-0.933005
-1.01037
-1.08651
-1.16056
-1.23173
-1.29925
-1.36245
-1.4207
-1.47345
-1.52024
-1.56066
-1.59438
-1.62112
-1.64069
-1.65295
-1.65782
-1.65527
-1.64534
-1.62808
-1.60363
-1.57212
-1.53377
-1.48879
-1.43746
-1.38006
-1.31696
-1.24851
-1.17514
-1.09732
-1.01559
-0.930549
-0.842848
-0.753223
-0.662473
-0.571451
-0.481066
-0.392276
-0.306078
-0.223481
-0.145471
-0.07297