/*--------------------------------*- C++ -*----------------------------------*\
  =========                 |
  \\      /  F ield         | OpenFOAM: The Open Source CFD Toolbox
   \\    /   O peration     | Website:  https://openfoam.org
    \\  /    A nd           | Version:  9
     \\/     M anipulation  |
\*---------------------------------------------------------------------------*/
FoamFile
{
    format      ascii;
    class       surfaceScalarField;
    location    "0.14";
    object      phi;
}
// * * * * * * * * * * * * * * * * * * * * * * * * * * * * * * * * * * * * * //

dimensions      [0 3 -1 0 0 0 0];

internalField   nonuniform List<scalar> 
24170
(
3.05465e-07
1.33753e-08
2.65622e-07
3.98435e-08
2.3474e-07
3.08816e-08
2.09956e-07
2.47838e-08
1.90653e-07
1.93035e-08
1.75694e-07
1.4959e-08
1.62993e-07
1.27011e-08
1.51151e-07
1.18421e-08
1.39531e-07
1.16201e-08
1.27917e-07
1.16133e-08
1.16292e-07
1.16253e-08
1.04746e-07
1.15461e-08
9.34694e-08
1.12766e-08
8.28232e-08
1.06461e-08
7.35504e-08
9.27288e-09
6.79852e-08
5.56518e-09
7.38651e-08
-5.87992e-09
3.08315e-08
4.30336e-08
3.45868e-07
9.23245e-09
3.36884e-07
4.88275e-08
3.21526e-07
4.62392e-08
3.05629e-07
4.06811e-08
2.90424e-07
3.45083e-08
2.7624e-07
2.9143e-08
2.62898e-07
2.6043e-08
2.49869e-07
2.48712e-08
2.36656e-07
2.48331e-08
2.22915e-07
2.53544e-08
2.08465e-07
2.60751e-08
1.93273e-07
2.67384e-08
1.77426e-07
2.71238e-08
1.61141e-07
2.69309e-08
1.44745e-07
2.56686e-08
1.29468e-07
2.08427e-08
1.11133e-07
1.24547e-08
6.48221e-08
7.71423e-08
3.64719e-07
1.07648e-08
3.66173e-07
4.73741e-08
3.60461e-07
5.1951e-08
3.51502e-07
4.96401e-08
3.40677e-07
4.53331e-08
3.28951e-07
4.0869e-08
3.16879e-07
3.81151e-08
3.0448e-07
3.72706e-08
2.91517e-07
3.7796e-08
2.7771e-07
3.9161e-08
2.62838e-07
4.09476e-08
2.46771e-07
4.28053e-08
2.29465e-07
4.44294e-08
2.10922e-07
4.54739e-08
1.91147e-07
4.54438e-08
1.69728e-07
4.22623e-08
1.42529e-07
3.96536e-08
9.29002e-08
1.14451e-07
3.91666e-07
1.16376e-08
3.94282e-07
4.47586e-08
3.92384e-07
5.38482e-08
3.87116e-07
5.49089e-08
3.79355e-07
5.30937e-08
3.6987e-07
5.03542e-08
3.59288e-07
4.86965e-08
3.47846e-07
4.87124e-08
3.35485e-07
5.01571e-08
3.22015e-07
5.26312e-08
3.07225e-07
5.57374e-08
2.90938e-07
5.90927e-08
2.73013e-07
6.23538e-08
2.53311e-07
6.51763e-08
2.31631e-07
6.71235e-08
2.07001e-07
6.6892e-08
1.77077e-07
6.95785e-08
1.18372e-07
1.51605e-07
4.20645e-07
1.17053e-08
4.2324e-07
4.21632e-08
4.23071e-07
5.40178e-08
4.19994e-07
5.79855e-08
4.14409e-07
5.86786e-08
4.0678e-07
5.79836e-08
3.9762e-07
5.7857e-08
3.87213e-07
5.91187e-08
3.75595e-07
6.1775e-08
3.62648e-07
6.55788e-08
3.48188e-07
7.0197e-08
3.32021e-07
7.52599e-08
3.13953e-07
8.04217e-08
2.93771e-07
8.53587e-08
2.7119e-07
8.97045e-08
2.45269e-07
9.2813e-08
2.14963e-07
9.98847e-08
1.42872e-07
1.90463e-07
4.51111e-07
1.15032e-08
4.53597e-07
3.9677e-08
4.54324e-07
5.3291e-08
4.52639e-07
5.96702e-08
4.48621e-07
6.26966e-08
4.42487e-07
6.41173e-08
4.34601e-07
6.57437e-08
4.25218e-07
6.85016e-08
4.14407e-07
7.25857e-08
4.02097e-07
7.78885e-08
3.88138e-07
8.41566e-08
3.72338e-07
9.10592e-08
3.54492e-07
9.82681e-08
3.34371e-07
1.0548e-07
3.11694e-07
1.12382e-07
2.85736e-07
1.18771e-07
2.56298e-07
1.29323e-07
1.66677e-07
2.32493e-07
4.83509e-07
1.12657e-08
4.85833e-07
3.73533e-08
4.8701e-07
5.21142e-08
4.86214e-07
6.04658e-08
4.83325e-07
6.55861e-08
4.78381e-07
6.90612e-08
4.71606e-07
7.25192e-08
4.63195e-07
7.69122e-08
4.53218e-07
8.25627e-08
4.41631e-07
8.9476e-08
4.28312e-07
9.74755e-08
4.13094e-07
1.06277e-07
3.95788e-07
1.15574e-07
3.76196e-07
1.25072e-07
3.54089e-07
1.34488e-07
3.29002e-07
1.43858e-07
3.01283e-07
1.57043e-07
1.89529e-07
2.78431e-07
5.18187e-07
1.1037e-08
5.20273e-07
3.52671e-08
5.21627e-07
5.07603e-08
5.21387e-07
6.07056e-08
5.19308e-07
6.76653e-08
5.15307e-07
7.3062e-08
5.09491e-07
7.83348e-08
5.01991e-07
8.44127e-08
4.92858e-07
9.16954e-08
4.82064e-07
1.0027e-07
4.69516e-07
1.10023e-07
4.55081e-07
1.20712e-07
4.38611e-07
1.32044e-07
4.19962e-07
1.43721e-07
3.98988e-07
1.55461e-07
3.75466e-07
1.6738e-07
3.50057e-07
1.82451e-07
2.10985e-07
3.28602e-07
5.55354e-07
1.08165e-08
5.57157e-07
3.34641e-08
5.58523e-07
4.93949e-08
5.58616e-07
6.06124e-08
5.57118e-07
6.91627e-08
5.53869e-07
7.63113e-08
5.48886e-07
8.33181e-08
5.42238e-07
9.10605e-08
5.33958e-07
9.99754e-08
5.24026e-07
1.10202e-07
5.12378e-07
1.21671e-07
4.98924e-07
1.34167e-07
4.83567e-07
1.47401e-07
4.66234e-07
1.61054e-07
4.46866e-07
1.74829e-07
4.25437e-07
1.88809e-07
4.02742e-07
2.05146e-07
2.30548e-07
3.83179e-07
5.9519e-07
1.0604e-08
5.96705e-07
3.19491e-08
5.97988e-07
4.81116e-08
5.9827e-07
6.03308e-08
5.97196e-07
7.02363e-08
5.94559e-07
7.89487e-08
5.90312e-07
8.75654e-08
5.84476e-07
9.68961e-08
5.77067e-07
1.07385e-07
5.68072e-07
1.19197e-07
5.57458e-07
1.32285e-07
5.4518e-07
1.46445e-07
5.31201e-07
1.6138e-07
5.15514e-07
1.76742e-07
4.98145e-07
1.92197e-07
4.79206e-07
2.07748e-07
4.59505e-07
2.24847e-07
2.47764e-07
4.4229e-07
6.37888e-07
1.0397e-08
6.39138e-07
3.06989e-08
6.403e-07
4.69495e-08
6.40687e-07
5.99441e-08
6.39938e-07
7.09856e-08
6.37822e-07
8.10642e-08
6.34252e-07
9.11354e-08
6.29215e-07
1.01934e-07
6.22712e-07
1.13888e-07
6.14745e-07
1.27164e-07
6.05309e-07
1.41721e-07
5.94404e-07
1.5735e-07
5.8205e-07
1.73734e-07
5.683e-07
1.90491e-07
5.5325e-07
2.07248e-07
5.37096e-07
2.23902e-07
5.20583e-07
2.41359e-07
2.6227e-07
5.06076e-07
5.74257e-07
1.02231e-08
5.7513e-07
2.98261e-08
5.76019e-07
4.60611e-08
5.764e-07
5.95627e-08
5.75978e-07
7.14076e-08
5.74558e-07
8.24839e-08
5.72048e-07
9.36461e-08
5.68419e-07
1.05563e-07
5.6367e-07
1.18636e-07
5.57814e-07
1.33021e-07
5.5087e-07
1.48665e-07
5.42871e-07
1.65348e-07
5.33872e-07
1.82733e-07
5.23955e-07
2.00408e-07
5.13238e-07
2.17965e-07
5.01923e-07
2.35218e-07
4.90564e-07
2.52718e-07
2.72176e-07
4.80659e-07
7.00012e-07
1.00263e-08
7.00874e-07
2.89649e-08
7.01801e-07
4.51332e-08
7.02301e-07
5.90636e-08
7.02056e-07
7.16525e-08
7.00848e-07
8.36913e-08
6.98563e-07
9.59309e-08
6.9516e-07
1.08966e-07
6.90638e-07
1.23157e-07
6.85024e-07
1.38635e-07
6.78365e-07
1.55324e-07
6.70732e-07
1.72982e-07
6.62222e-07
1.91243e-07
6.52962e-07
2.09668e-07
6.43112e-07
2.27816e-07
6.32913e-07
2.45416e-07
6.22918e-07
2.62713e-07
2.80676e-07
6.14417e-07
8.53316e-07
9.79529e-09
8.54179e-07
2.81021e-08
8.55185e-07
4.41263e-08
8.55881e-07
5.83677e-08
8.55951e-07
7.15828e-08
8.55166e-07
8.44763e-08
8.53398e-07
9.76994e-08
8.50598e-07
1.11766e-07
8.46775e-07
1.26981e-07
8.41975e-07
1.43434e-07
8.36282e-07
1.61017e-07
8.2981e-07
1.79454e-07
8.22702e-07
1.98351e-07
8.15126e-07
2.17244e-07
8.07273e-07
2.35668e-07
7.99401e-07
2.53288e-07
7.92005e-07
2.70109e-07
2.86571e-07
7.8611e-07
1.04022e-06
9.49993e-09
1.04117e-06
2.7154e-08
1.04239e-06
4.29009e-08
1.04349e-06
5.72719e-08
1.04415e-06
7.09163e-08
1.04417e-06
8.44601e-08
1.04341e-06
9.84623e-08
1.04182e-06
1.13352e-07
1.03943e-06
1.29368e-07
1.03632e-06
1.46547e-07
1.0326e-06
1.64735e-07
1.02843e-06
1.83623e-07
1.02399e-06
2.02791e-07
1.01948e-06
2.21762e-07
1.01508e-06
2.40062e-07
1.01105e-06
2.57319e-07
1.00778e-06
2.73382e-07
2.88346e-07
1.006e-06
1.2681e-06
9.07944e-09
1.26933e-06
2.59199e-08
1.27109e-06
4.11474e-08
1.273e-06
5.53558e-08
1.2748e-06
6.9115e-08
1.27629e-06
8.29745e-08
1.27734e-06
9.74079e-08
1.27794e-06
1.12759e-07
1.27811e-06
1.29196e-07
1.27796e-06
1.46692e-07
1.27765e-06
1.65048e-07
1.27735e-06
1.83924e-07
1.27726e-06
2.02884e-07
1.27757e-06
2.21455e-07
1.27845e-06
2.39175e-07
1.2801e-06
2.55667e-07
1.28279e-06
2.707e-07
2.84175e-07
1.28696e-06
1.54598e-06
8.41835e-09
1.54787e-06
2.40266e-08
1.55073e-06
3.82887e-08
1.55423e-06
5.18566e-08
1.55811e-06
6.52369e-08
1.56218e-06
7.88997e-08
1.56636e-06
9.32352e-08
1.57061e-06
1.08505e-07
1.575e-06
1.24802e-07
1.57965e-06
1.42044e-07
1.58471e-06
1.59989e-07
1.59036e-06
1.78276e-07
1.59677e-06
1.96472e-07
1.6041e-06
2.14123e-07
1.61248e-06
2.30799e-07
1.622e-06
2.46146e-07
1.63279e-06
2.59912e-07
2.7192e-07
1.64504e-06
1.88487e-06
7.31266e-09
1.88804e-06
2.08562e-08
1.89296e-06
3.33698e-08
1.89928e-06
4.55337e-08
1.90673e-06
5.77875e-08
1.91512e-06
7.05112e-08
1.92435e-06
8.40055e-08
1.9344e-06
9.84498e-08
1.94534e-06
1.1387e-07
1.95724e-06
1.30135e-07
1.97026e-06
1.46975e-07
1.98451e-06
1.64024e-07
2.00012e-06
1.80865e-07
2.01716e-06
1.97077e-07
2.03569e-06
2.12277e-07
2.05568e-06
2.2615e-07
2.07713e-06
2.38462e-07
2.49032e-07
2.10002e-06
2.29822e-06
5.425e-09
2.30363e-06
1.54458e-08
2.31207e-06
2.49325e-08
2.32305e-06
3.45481e-08
2.33621e-06
4.46294e-08
2.35129e-06
5.54303e-08
2.36816e-06
6.71399e-08
2.38676e-06
7.9846e-08
2.40712e-06
9.35091e-08
2.4293e-06
1.07961e-07
2.45335e-06
1.22923e-07
2.47933e-06
1.38041e-07
2.50727e-06
1.5293e-07
2.53713e-06
1.67213e-07
2.56885e-06
1.80557e-07
2.60231e-06
1.92697e-07
2.63733e-06
2.03437e-07
2.1263e-07
2.67373e-06
1.68286e-06
3.63984e-09
1.68797e-06
1.03297e-08
1.69591e-06
1.69977e-08
1.70615e-06
2.43015e-08
1.71834e-06
3.24456e-08
1.73222e-06
4.15449e-08
1.74768e-06
5.16801e-08
1.76467e-06
6.28563e-08
1.7832e-06
7.49821e-08
1.80329e-06
8.78686e-08
1.82497e-06
1.0124e-07
1.84825e-06
1.14761e-07
1.87311e-06
1.28075e-07
1.89948e-06
1.40839e-07
1.92728e-06
1.52758e-07
1.95638e-06
1.63597e-07
1.98663e-06
1.73191e-07
1.81423e-07
2.01783e-06
1.46526e-06
1.83645e-09
1.47055e-06
5.0397e-09
1.47869e-06
8.85679e-09
1.48903e-06
1.39604e-08
1.50114e-06
2.03337e-08
1.51477e-06
2.79156e-08
1.52979e-06
3.66609e-08
1.54617e-06
4.64761e-08
1.56394e-06
5.72137e-08
1.58314e-06
6.8668e-08
1.60381e-06
8.0572e-08
1.62596e-06
9.26132e-08
1.64957e-06
1.04465e-07
1.67459e-06
1.1582e-07
1.70093e-06
1.26415e-07
1.72848e-06
1.36045e-07
1.7571e-06
1.44569e-07
1.51894e-07
1.78663e-06
1.27569e-06
1.59702e-10
1.28096e-06
-2.35087e-10
1.289e-06
8.21742e-10
1.29897e-06
3.99336e-09
1.31041e-06
8.89451e-09
1.32306e-06
1.52651e-08
1.3368e-06
2.29146e-08
1.35165e-06
3.16266e-08
1.36767e-06
4.11912e-08
1.38495e-06
5.13913e-08
1.40355e-06
6.19747e-08
1.4235e-06
7.26578e-08
1.44482e-06
8.31499e-08
1.46746e-06
9.31798e-08
1.49136e-06
1.02519e-07
1.51641e-06
1.10992e-07
1.54249e-06
1.18485e-07
1.24921e-07
1.56947e-06
1.11047e-06
-1.21913e-09
1.11561e-06
-5.37466e-09
1.12334e-06
-6.90628e-09
1.13263e-06
-5.29611e-09
1.14302e-06
-1.49834e-09
1.15425e-06
4.0337e-09
1.16623e-06
1.0933e-08
1.17903e-06
1.88272e-08
1.19278e-06
2.74424e-08
1.20761e-06
3.65601e-08
1.22364e-06
4.59528e-08
1.24092e-06
5.53753e-08
1.25949e-06
6.45797e-08
1.27933e-06
7.3338e-08
1.30039e-06
8.146e-08
1.32258e-06
8.88043e-08
1.34578e-06
9.52808e-08
1.00832e-07
1.36987e-06
9.66442e-07
-2.13925e-09
9.71395e-07
-1.03285e-08
9.78675e-07
-1.41855e-08
9.87074e-07
-1.36954e-08
9.96159e-07
-1.0583e-08
1.00566e-06
-5.46997e-09
1.01556e-06
1.03882e-09
1.026e-06
8.38219e-09
1.03721e-06
1.62349e-08
1.04937e-06
2.43972e-08
1.06264e-06
3.26825e-08
1.07712e-06
4.08971e-08
1.09285e-06
4.88475e-08
1.10983e-06
5.63554e-08
1.12802e-06
6.32741e-08
1.14733e-06
6.94976e-08
1.16765e-06
7.49631e-08
7.96302e-08
1.18885e-06
8.40809e-07
-2.41333e-09
8.4564e-07
-1.51594e-08
8.52343e-07
-2.08885e-08
8.59628e-07
-2.09806e-08
8.67121e-07
-1.80759e-08
8.74585e-07
-1.29342e-08
8.82115e-07
-6.49123e-09
8.90003e-07
4.94832e-10
8.98551e-07
7.68726e-09
9.08008e-07
1.49393e-08
9.18563e-07
2.21278e-08
9.3033e-07
2.91301e-08
9.4336e-07
3.58178e-08
9.57648e-07
4.20677e-08
9.73143e-07
4.77787e-08
9.8976e-07
5.28806e-08
1.00739e-06
5.73376e-08
6.11255e-08
1.02589e-06
7.30842e-07
-1.52732e-09
7.35917e-07
-2.02339e-08
7.41889e-07
-2.686e-08
7.47704e-07
-2.67964e-08
7.53171e-07
-2.35429e-08
7.58188e-07
-1.79507e-08
7.63065e-07
-1.1368e-08
7.68252e-07
-4.69212e-09
7.74132e-07
1.80713e-09
7.80992e-07
8.07945e-09
7.89025e-07
1.40947e-08
7.98334e-07
1.98212e-08
8.08949e-07
2.52024e-08
8.20847e-07
3.01694e-08
8.33963e-07
3.46633e-08
8.48198e-07
3.86456e-08
8.63431e-07
4.21038e-08
4.50303e-08
8.79527e-07
6.33922e-07
1.5576e-09
6.39951e-07
-2.62632e-08
6.44786e-07
-3.16955e-08
6.48481e-07
-3.04907e-08
6.5122e-07
-2.62822e-08
6.53236e-07
-1.99664e-08
6.55155e-07
-1.32871e-08
6.57571e-07
-7.108e-09
6.60895e-07
-1.51708e-09
6.65397e-07
3.57758e-09
6.71234e-07
8.25786e-09
6.78452e-07
1.26027e-08
6.87035e-07
1.66197e-08
6.96922e-07
2.0282e-08
7.08024e-07
2.35615e-08
7.20228e-07
2.64419e-08
7.33406e-07
2.89257e-08
3.10252e-08
7.47411e-07
5.49437e-07
6.66693e-09
5.56293e-07
-3.3119e-08
5.58216e-07
-3.36189e-08
5.58256e-07
-3.05302e-08
5.57045e-07
-2.50718e-08
5.5531e-07
-1.82309e-08
5.53983e-07
-1.19602e-08
5.53675e-07
-6.80014e-09
5.54699e-07
-2.54148e-09
5.57208e-07
1.0686e-09
5.61274e-07
4.19258e-09
5.66828e-07
7.04819e-09
5.73785e-07
9.66295e-09
5.82041e-07
1.20265e-08
5.91479e-07
1.41235e-08
6.01973e-07
1.59476e-08
6.13396e-07
1.75027e-08
1.88191e-08
6.25602e-07
4.86778e-07
2.64946e-09
4.84919e-07
-3.12594e-08
4.77807e-07
-2.65069e-08
4.69657e-07
-2.23805e-08
4.61944e-07
-1.7359e-08
4.55388e-07
-1.16748e-08
4.50642e-07
-7.21428e-09
4.47878e-07
-4.03641e-09
4.47038e-07
-1.70087e-09
4.48028e-07
7.83141e-11
4.50769e-07
1.45168e-09
4.55035e-07
2.78249e-09
4.60678e-07
4.02007e-09
4.67563e-07
5.14106e-09
4.75559e-07
6.12749e-09
4.8453e-07
6.97619e-09
4.9435e-07
7.68297e-09
8.27409e-09
5.04895e-07
4.22917e-07
3.91658e-07
3.65151e-07
3.4277e-07
3.25411e-07
3.13736e-07
3.06522e-07
3.02486e-07
3.00785e-07
3.00863e-07
3.02315e-07
3.05097e-07
3.09117e-07
3.14259e-07
3.20386e-07
3.27362e-07
3.35045e-07
3.43319e-07
7.02552e-08
-7.02552e-08
1.90389e-07
-1.20133e-07
3.22171e-07
-1.31782e-07
4.48919e-07
-1.26748e-07
5.62869e-07
-1.1395e-07
6.60091e-07
-9.72218e-08
7.38452e-07
-7.83611e-08
7.96676e-07
-5.82233e-08
8.33814e-07
-3.71388e-08
8.49218e-07
-1.54036e-08
8.41681e-07
7.53671e-09
8.11451e-07
3.02299e-08
7.63407e-07
4.80443e-08
7.03617e-07
5.97898e-08
6.38665e-07
6.49523e-08
5.74155e-07
6.45095e-08
5.13774e-07
6.03813e-08
4.5869e-07
5.50838e-08
4.07808e-07
5.08824e-08
3.5862e-07
4.91875e-08
3.08183e-07
5.04374e-08
2.53887e-07
5.42958e-08
1.93839e-07
6.00478e-08
1.26922e-07
6.69179e-08
5.27213e-08
7.42003e-08
-2.91996e-08
8.19209e-08
-1.19383e-07
9.01838e-08
-2.17787e-07
9.84032e-08
-3.24059e-07
1.06273e-07
-4.37711e-07
1.13652e-07
-5.58096e-07
1.20385e-07
-6.84437e-07
1.26341e-07
-8.15861e-07
1.31425e-07
-9.51437e-07
1.35576e-07
-1.09021e-06
1.38772e-07
-1.23123e-06
1.41024e-07
-1.3736e-06
1.42368e-07
-1.51646e-06
1.42862e-07
-1.65904e-06
1.42574e-07
-1.80062e-06
1.41581e-07
-1.94058e-06
1.39963e-07
-2.07838e-06
1.37793e-07
-2.21352e-06
1.35141e-07
-2.34558e-06
1.32066e-07
-2.4742e-06
1.28619e-07
-2.59904e-06
1.24839e-07
-2.7198e-06
1.20757e-07
-2.83619e-06
1.16394e-07
-2.94795e-06
1.11762e-07
-3.05482e-06
1.06866e-07
-3.15653e-06
1.01707e-07
-3.25281e-06
9.62797e-08
-3.34338e-06
9.05742e-08
-3.42796e-06
8.45795e-08
-3.50624e-06
7.82831e-08
-3.57791e-06
7.16717e-08
-3.64265e-06
6.47326e-08
-3.7001e-06
5.74554e-08
-3.74994e-06
4.98333e-08
-3.7918e-06
4.18609e-08
-3.82534e-06
3.35409e-08
-3.85023e-06
2.4891e-08
-3.86619e-06
1.59652e-08
-3.87313e-06
6.93234e-09
-3.87164e-06
-1.48844e-09
-3.86251e-06
-9.12697e-09
-3.8462e-06
-1.63148e-08
-3.82293e-06
-2.32621e-08
-3.79286e-06
-3.00711e-08
-3.7561e-06
-3.67579e-08
-3.7128e-06
-4.33022e-08
-3.66314e-06
-4.96667e-08
-3.60733e-06
-5.5806e-08
-3.54566e-06
-6.16698e-08
-3.47845e-06
-6.72059e-08
-3.40609e-06
-7.23617e-08
-3.32901e-06
-7.70852e-08
-3.24768e-06
-8.13263e-08
-3.16264e-06
-8.50382e-08
-3.07446e-06
-8.81783e-08
-2.98375e-06
-9.07095e-08
-2.89115e-06
-9.26015e-08
-2.79732e-06
-9.38315e-08
-2.70294e-06
-9.43857e-08
-2.60868e-06
-9.42599e-08
-2.51522e-06
-9.34602e-08
-2.42321e-06
-9.20032e-08
-2.3333e-06
-8.99163e-08
-2.24606e-06
-8.7237e-08
-2.16205e-06
-8.4013e-08
-2.08175e-06
-8.03011e-08
-2.00558e-06
-7.61671e-08
-1.93389e-06
-7.16835e-08
-1.86697e-06
-6.69275e-08
-1.80499e-06
-6.19782e-08
-1.74808e-06
-5.6913e-08
-1.69627e-06
-5.18048e-08
-1.64955e-06
-4.67193e-08
-1.60784e-06
-4.17124e-08
-1.57101e-06
-3.68298e-08
-1.5389e-06
-3.21072e-08
-1.51133e-06
-2.75718e-08
-1.48809e-06
-2.32451e-08
-1.46894e-06
-1.9146e-08
-1.45365e-06
-1.52908e-08
-1.44195e-06
-1.16957e-08
-1.43357e-06
-8.38303e-09
-1.4282e-06
-5.37076e-09
-1.42564e-06
-2.55956e-09
-1.42576e-06
1.21812e-10
-1.42818e-06
2.42308e-09
-1.4329e-06
4.7137e-09
-1.43959e-06
6.69525e-09
-1.4479e-06
8.30204e-09
-1.45741e-06
9.51278e-09
-1.46773e-06
1.03208e-08
-1.47846e-06
1.07267e-08
-1.48919e-06
1.07351e-08
-1.49955e-06
1.03542e-08
-1.50914e-06
9.59406e-09
-1.5176e-06
8.4654e-09
-1.52459e-06
6.98116e-09
-1.52975e-06
5.16206e-09
-1.5328e-06
3.05274e-09
-1.53352e-06
7.23847e-10
-1.532e-06
-1.52909e-09
-1.52813e-06
-3.86559e-09
-1.52183e-06
-6.30359e-09
-1.51297e-06
-8.85338e-09
-1.50147e-06
-1.15013e-08
-1.48725e-06
-1.42244e-08
-1.47026e-06
-1.69916e-08
-1.4505e-06
-1.97579e-08
-1.42802e-06
-2.2479e-08
-1.40271e-06
-2.53051e-08
-1.37435e-06
-2.83652e-08
-1.34132e-06
-3.30272e-08
-1.3011e-06
-4.02231e-08
-1.26068e-06
-4.04199e-08
-1.22039e-06
-4.02907e-08
-1.1752e-06
-4.51829e-08
-1.12746e-06
-4.77442e-08
-1.07618e-06
-5.12802e-08
-1.02128e-06
-5.49039e-08
-9.64741e-07
-5.65356e-08
-9.05619e-07
-5.9122e-08
-8.38357e-07
-6.72619e-08
-7.70263e-07
-6.80942e-08
-7.02764e-07
-6.74982e-08
-6.29689e-07
-7.30757e-08
-5.54774e-07
-7.49144e-08
-4.76394e-07
-7.83801e-08
-3.96501e-07
-7.98935e-08
-3.15535e-07
-8.09661e-08
-2.3117e-07
-8.43646e-08
-1.45628e-07
-8.55421e-08
-5.92488e-08
-8.63792e-08
2.77667e-08
-8.70155e-08
1.15207e-07
-8.74402e-08
2.02463e-07
-8.72563e-08
2.89293e-07
-8.68302e-08
3.77157e-07
-8.78637e-08
4.64183e-07
-8.70263e-08
5.50123e-07
-8.59395e-08
6.29819e-07
-7.96964e-08
7.1061e-07
-8.07903e-08
7.87782e-07
-7.7172e-08
8.57044e-07
-6.92624e-08
9.25795e-07
-6.87508e-08
9.89475e-07
-6.36801e-08
1.04739e-06
-5.79122e-08
1.09883e-06
-5.14474e-08
1.14317e-06
-4.4334e-08
1.17954e-06
-3.63677e-08
1.20655e-06
-2.70159e-08
1.22082e-06
-1.42673e-08
1.21639e-06
4.42474e-09
1.18878e-06
2.7614e-08
1.13014e-06
5.86423e-08
9.17858e-08
1.03835e-06
1.27575e-07
-1.97831e-07
2.41736e-07
-2.34294e-07
3.32317e-07
-2.22362e-07
4.04841e-07
-1.99273e-07
4.62282e-07
-1.71391e-07
5.06065e-07
-1.41005e-07
5.37025e-07
-1.09321e-07
5.55799e-07
-7.69979e-08
5.63087e-07
-4.4426e-08
5.59416e-07
-1.17328e-08
5.46432e-07
2.05207e-08
5.24798e-07
5.18643e-08
4.92541e-07
8.03012e-08
4.48904e-07
1.03427e-07
3.94318e-07
1.19538e-07
3.30157e-07
1.28671e-07
2.57718e-07
1.32821e-07
1.77788e-07
1.35013e-07
9.06641e-08
1.38006e-07
-3.6457e-09
1.43497e-07
-1.05232e-07
1.52023e-07
-2.14221e-07
1.63285e-07
-3.30671e-07
1.76498e-07
-4.54521e-07
1.90767e-07
-5.85598e-07
2.05278e-07
-7.23117e-07
2.19439e-07
-8.65776e-07
2.32843e-07
-1.01249e-06
2.45115e-07
-1.16213e-06
2.55917e-07
-1.31348e-06
2.65e-07
-1.46531e-06
2.72211e-07
-1.61645e-06
2.77485e-07
-1.76586e-06
2.80834e-07
-1.91262e-06
2.82334e-07
-2.05596e-06
2.82109e-07
-2.19525e-06
2.80315e-07
-2.33001e-06
2.7713e-07
-2.45988e-06
2.72736e-07
-2.58462e-06
2.67313e-07
-2.70407e-06
2.61028e-07
-2.81814e-06
2.54031e-07
-2.9268e-06
2.46453e-07
-3.03005e-06
2.38398e-07
-3.12794e-06
2.29953e-07
-3.2205e-06
2.21179e-07
-3.30778e-06
2.12123e-07
-3.38984e-06
2.02811e-07
-3.4667e-06
1.93258e-07
-3.53841e-06
1.83466e-07
-3.60497e-06
1.7343e-07
-3.6664e-06
1.6314e-07
-3.7227e-06
1.52578e-07
-3.77386e-06
1.41731e-07
-3.81986e-06
1.3058e-07
-3.86069e-06
1.19114e-07
-3.89634e-06
1.07324e-07
-3.92681e-06
9.52046e-08
-3.95212e-06
8.27631e-08
-3.9723e-06
7.00143e-08
-3.98743e-06
5.69866e-08
-3.99762e-06
4.37276e-08
-4.00303e-06
3.03075e-08
-4.00389e-06
1.68219e-08
-4.00033e-06
3.36934e-09
-3.99173e-06
-1.00853e-08
-3.97724e-06
-2.36158e-08
-3.95634e-06
-3.72155e-08
-3.92881e-06
-5.07877e-08
-3.89462e-06
-6.42623e-08
-3.85381e-06
-7.75684e-08
-3.80649e-06
-9.06251e-08
-3.75281e-06
-1.03342e-07
-3.693e-06
-1.15621e-07
-3.62731e-06
-1.2736e-07
-3.55606e-06
-1.38453e-07
-3.47963e-06
-1.48794e-07
-3.39843e-06
-1.58279e-07
-3.31295e-06
-1.66807e-07
-3.22371e-06
-1.74283e-07
-3.13127e-06
-1.80619e-07
-3.03624e-06
-1.8574e-07
-2.93926e-06
-1.89582e-07
-2.84099e-06
-1.92094e-07
-2.74214e-06
-1.93244e-07
-2.64338e-06
-1.93017e-07
-2.54542e-06
-1.91418e-07
-2.44895e-06
-1.88471e-07
-2.35465e-06
-1.84224e-07
-2.26314e-06
-1.78741e-07
-2.17504e-06
-1.72111e-07
-2.09091e-06
-1.64437e-07
-2.01123e-06
-1.55844e-07
-1.93645e-06
-1.46467e-07
-1.86692e-06
-1.36456e-07
-1.80293e-06
-1.25966e-07
-1.74469e-06
-1.15157e-07
-1.69231e-06
-1.04185e-07
-1.64583e-06
-9.3201e-08
-1.60519e-06
-8.23449e-08
-1.57028e-06
-7.1741e-08
-1.54089e-06
-6.14955e-08
-1.51677e-06
-5.16947e-08
-1.49761e-06
-4.24043e-08
-1.48309e-06
-3.36718e-08
-1.47285e-06
-2.5529e-08
-1.46655e-06
-1.79961e-08
-1.46385e-06
-1.10844e-08
-1.46443e-06
-4.78592e-09
-1.46792e-06
9.3349e-10
-1.47386e-06
6.05937e-09
-1.48188e-06
1.04396e-08
-1.4913e-06
1.4137e-08
-1.50173e-06
1.71248e-08
-1.51281e-06
1.93843e-08
-1.52421e-06
2.0913e-08
-1.53561e-06
2.17198e-08
-1.54671e-06
2.18225e-08
-1.55722e-06
2.1246e-08
-1.56689e-06
2.00218e-08
-1.57548e-06
1.81873e-08
-1.5828e-06
1.57852e-08
-1.58868e-06
1.28647e-08
-1.593e-06
9.48225e-09
-1.59565e-06
5.69796e-09
-1.59648e-06
1.55846e-09
-1.59514e-06
-2.87352e-09
-1.59138e-06
-7.62079e-09
-1.58505e-06
-1.26381e-08
-1.57601e-06
-1.78956e-08
-1.56415e-06
-2.3363e-08
-1.54936e-06
-2.90086e-08
-1.53155e-06
-3.48002e-08
-1.5106e-06
-4.07094e-08
-1.48635e-06
-4.67326e-08
-1.45872e-06
-5.29351e-08
-1.42763e-06
-5.94509e-08
-1.39362e-06
-6.70355e-08
-1.35847e-06
-7.53804e-08
-1.31842e-06
-8.04638e-08
-1.27365e-06
-8.50652e-08
-1.22712e-06
-9.17109e-08
-1.17706e-06
-9.77991e-08
-1.12403e-06
-1.04319e-07
-1.06816e-06
-1.10771e-07
-1.00831e-06
-1.16382e-07
-9.44477e-07
-1.22958e-07
-8.80197e-07
-1.31541e-07
-8.12373e-07
-1.35919e-07
-7.39542e-07
-1.40329e-07
-6.65731e-07
-1.46887e-07
-5.88519e-07
-1.52126e-07
-5.09192e-07
-1.57707e-07
-4.28032e-07
-1.61053e-07
-3.44075e-07
-1.64923e-07
-2.58921e-07
-1.69519e-07
-1.72156e-07
-1.72308e-07
-8.33328e-08
-1.75202e-07
5.12113e-09
-1.75469e-07
9.4319e-08
-1.76638e-07
1.84108e-07
-1.77045e-07
2.73196e-07
-1.75919e-07
3.60887e-07
-1.75555e-07
4.48674e-07
-1.74813e-07
5.34586e-07
-1.71851e-07
6.20765e-07
-1.65875e-07
7.0092e-07
-1.60945e-07
7.79541e-07
-1.55793e-07
8.5545e-07
-1.45171e-07
9.25204e-07
-1.38505e-07
9.90852e-07
-1.29328e-07
1.05136e-06
-1.1842e-07
1.10595e-06
-1.06041e-07
1.15384e-06
-9.22217e-08
1.19417e-06
-7.66951e-08
1.22594e-06
-5.87844e-08
1.24873e-06
-3.70553e-08
1.26212e-06
-8.96934e-09
1.26405e-06
2.56816e-08
1.24846e-06
7.42335e-08
1.33631e-07
1.20662e-06
9.66945e-08
-2.94525e-07
1.63804e-07
-3.01404e-07
2.10736e-07
-2.69293e-07
2.43532e-07
-2.32069e-07
2.65049e-07
-1.92908e-07
2.76664e-07
-1.52621e-07
2.79067e-07
-1.11724e-07
2.72683e-07
-7.06137e-08
2.57897e-07
-2.96396e-08
2.35306e-07
1.08578e-08
2.05374e-07
5.04531e-08
1.68899e-07
8.83387e-08
1.26053e-07
1.23148e-07
7.62018e-08
1.53277e-07
1.80211e-08
1.77718e-07
-5.00877e-08
1.9678e-07
-1.29336e-07
2.12069e-07
-2.20078e-07
2.25755e-07
-3.21775e-07
2.39704e-07
-4.33256e-07
2.54978e-07
-5.53019e-07
2.71787e-07
-6.79455e-07
2.89721e-07
-8.11011e-07
3.08055e-07
-9.4624e-07
3.25997e-07
-1.0838e-06
3.42841e-07
-1.2224e-06
3.58037e-07
-1.36075e-06
3.7119e-07
-1.49767e-06
3.82037e-07
-1.63218e-06
3.90425e-07
-1.76348e-06
3.96305e-07
-1.891e-06
3.99724e-07
-2.01432e-06
4.00807e-07
-2.13322e-06
3.99738e-07
-2.24762e-06
3.96736e-07
-2.35755e-06
3.92039e-07
-2.46313e-06
3.85889e-07
-2.56452e-06
3.78518e-07
-2.66192e-06
3.70138e-07
-2.75554e-06
3.60938e-07
-2.8456e-06
3.5108e-07
-2.93226e-06
3.40692e-07
-3.01568e-06
3.29879e-07
-3.096e-06
3.18716e-07
-3.1733e-06
3.07253e-07
-3.24764e-06
2.9552e-07
-3.31905e-06
2.83529e-07
-3.38751e-06
2.71275e-07
-3.453e-06
2.58744e-07
-3.51544e-06
2.45911e-07
-3.57476e-06
2.32747e-07
-3.63084e-06
2.19218e-07
-3.68355e-06
2.0529e-07
-3.73275e-06
1.9093e-07
-3.77827e-06
1.76108e-07
-3.81996e-06
1.608e-07
-3.85762e-06
1.44988e-07
-3.89108e-06
1.28662e-07
-3.92014e-06
1.11823e-07
-3.94461e-06
9.44822e-08
-3.96428e-06
7.66606e-08
-3.97895e-06
5.83916e-08
-3.98836e-06
3.9719e-08
-3.99223e-06
2.06916e-08
-3.99021e-06
1.3447e-09
-3.98197e-06
-1.83222e-08
-3.96731e-06
-3.82695e-08
-3.94614e-06
-5.83947e-08
-3.91835e-06
-7.85774e-08
-3.88392e-06
-9.86915e-08
-3.84288e-06
-1.18607e-07
-3.79532e-06
-1.38188e-07
-3.74137e-06
-1.57288e-07
-3.68123e-06
-1.75757e-07
-3.61516e-06
-1.93437e-07
-3.54344e-06
-2.10168e-07
-3.46645e-06
-2.25789e-07
-3.38458e-06
-2.40144e-07
-3.29831e-06
-2.53079e-07
-3.20814e-06
-2.64451e-07
-3.11464e-06
-2.74125e-07
-3.01839e-06
-2.81986e-07
-2.92004e-06
-2.87932e-07
-2.82025e-06
-2.91884e-07
-2.71971e-06
-2.93788e-07
-2.61911e-06
-2.93614e-07
-2.51917e-06
-2.91361e-07
-2.42058e-06
-2.8706e-07
-2.32403e-06
-2.80771e-07
-2.23019e-06
-2.72584e-07
-2.13968e-06
-2.62621e-07
-2.05308e-06
-2.51031e-07
-1.97094e-06
-2.3799e-07
-1.89371e-06
-2.23695e-07
-1.8218e-06
-2.08362e-07
-1.75555e-06
-1.92221e-07
-1.6952e-06
-1.75508e-07
-1.64092e-06
-1.58462e-07
-1.59281e-06
-1.41314e-07
-1.55086e-06
-1.2429e-07
-1.51501e-06
-1.07595e-07
-1.48509e-06
-9.14167e-08
-1.46087e-06
-7.59157e-08
-1.44205e-06
-6.12242e-08
-1.42827e-06
-4.74441e-08
-1.41915e-06
-3.46487e-08
-1.41426e-06
-2.28863e-08
-1.41316e-06
-1.2184e-08
-1.41541e-06
-2.54529e-09
-1.42049e-06
6.01738e-09
-1.42792e-06
1.34895e-08
-1.4373e-06
1.98191e-08
-1.44818e-06
2.50229e-08
-1.46018e-06
2.91179e-08
-1.47291e-06
3.21197e-08
-1.48605e-06
3.405e-08
-1.49927e-06
3.49379e-08
-1.51227e-06
3.48204e-08
-1.52476e-06
3.37408e-08
-1.53649e-06
3.1749e-08
-1.5472e-06
2.89002e-08
-1.55667e-06
2.52536e-08
-1.56468e-06
2.08716e-08
-1.57101e-06
1.58182e-08
-1.57547e-06
1.01527e-08
-1.57784e-06
3.92696e-09
-1.5779e-06
-2.80669e-09
-1.57551e-06
-1.0011e-08
-1.57052e-06
-1.76319e-08
-1.56279e-06
-2.56205e-08
-1.55222e-06
-3.39318e-08
-1.53871e-06
-4.25239e-08
-1.52215e-06
-5.13597e-08
-1.50245e-06
-6.0412e-08
-1.4795e-06
-6.96769e-08
-1.45326e-06
-7.91813e-08
-1.42369e-06
-8.90195e-08
-1.3913e-06
-9.94236e-08
-1.35679e-06
-1.09893e-07
-1.31827e-06
-1.1898e-07
-1.27551e-06
-1.27828e-07
-1.22984e-06
-1.37374e-07
-1.18083e-06
-1.46811e-07
-1.12872e-06
-1.56433e-07
-1.07351e-06
-1.65976e-07
-1.01464e-06
-1.75251e-07
-9.52546e-07
-1.85057e-07
-8.88913e-07
-1.95174e-07
-8.21578e-07
-2.03254e-07
-7.50493e-07
-2.11414e-07
-6.77384e-07
-2.19995e-07
-6.01491e-07
-2.28019e-07
-5.23566e-07
-2.35632e-07
-4.43055e-07
-2.41565e-07
-3.60485e-07
-2.47493e-07
-2.76681e-07
-2.53323e-07
-1.9104e-07
-2.57948e-07
-1.04454e-07
-2.61788e-07
-1.69032e-08
-2.6302e-07
7.11746e-08
-2.64716e-07
1.59516e-07
-2.65386e-07
2.47551e-07
-2.63954e-07
3.34392e-07
-2.62395e-07
4.2031e-07
-2.60732e-07
5.04984e-07
-2.56525e-07
5.88902e-07
-2.49793e-07
6.69528e-07
-2.41571e-07
7.47427e-07
-2.33693e-07
8.23343e-07
-2.21087e-07
8.94044e-07
-2.09206e-07
9.60239e-07
-1.95523e-07
1.02144e-06
-1.79623e-07
1.07698e-06
-1.61582e-07
1.12613e-06
-1.41368e-07
1.16811e-06
-1.18671e-07
1.2021e-06
-9.27767e-08
1.2275e-06
-6.24612e-08
1.24423e-06
-2.56977e-08
1.25082e-06
1.90893e-08
1.24693e-06
7.81308e-08
1.49969e-07
1.23059e-06
4.36807e-08
-3.38206e-07
6.12803e-08
-3.19004e-07
7.02283e-08
-2.78241e-07
7.1914e-08
-2.33754e-07
6.67228e-08
-1.87717e-07
5.489e-08
-1.40788e-07
3.65377e-08
-9.3372e-08
1.17494e-08
-4.58254e-08
-1.93531e-08
1.46299e-09
-5.65793e-08
4.80839e-08
-9.95712e-08
9.3445e-08
-1.47947e-07
1.36715e-07
-2.01694e-07
1.76895e-07
-2.61511e-07
2.13094e-07
-3.28746e-07
2.44953e-07
-4.04863e-07
2.72896e-07
-4.90774e-07
2.97979e-07
-5.86439e-07
3.21421e-07
-6.9088e-07
3.44145e-07
-8.0246e-07
3.66558e-07
-9.19239e-07
3.88565e-07
-1.03926e-06
4.09742e-07
-1.16073e-06
4.29526e-07
-1.28211e-06
4.47379e-07
-1.40215e-06
4.62876e-07
-1.51985e-06
4.75736e-07
-1.63448e-06
4.8582e-07
-1.74555e-06
4.93105e-07
-1.85279e-06
4.9767e-07
-1.95615e-06
4.99664e-07
-2.05572e-06
4.99293e-07
-2.15171e-06
4.96798e-07
-2.2444e-06
4.92433e-07
-2.33412e-06
4.86452e-07
-2.42118e-06
4.791e-07
-2.50589e-06
4.706e-07
-2.58852e-06
4.61149e-07
-2.6693e-06
4.50917e-07
-2.7484e-06
4.40042e-07
-2.82596e-06
4.28635e-07
-2.90204e-06
4.16776e-07
-2.97669e-06
4.04522e-07
-3.04988e-06
3.91906e-07
-3.12156e-06
3.78939e-07
-3.19166e-06
3.65618e-07
-3.26006e-06
3.51924e-07
-3.32661e-06
3.37825e-07
-3.39115e-06
3.23284e-07
-3.45349e-06
3.08256e-07
-3.51344e-06
2.92692e-07
-3.57076e-06
2.76543e-07
-3.62523e-06
2.59761e-07
-3.67661e-06
2.423e-07
-3.72462e-06
2.2412e-07
-3.769e-06
2.05188e-07
-3.80949e-06
1.85477e-07
-3.8458e-06
1.64974e-07
-3.87765e-06
1.43673e-07
-3.90475e-06
1.21582e-07
-3.92681e-06
9.8721e-08
-3.94354e-06
7.51224e-08
-3.95466e-06
5.0831e-08
-3.95987e-06
2.59018e-08
-3.95892e-06
3.94018e-10
-3.95161e-06
-2.56315e-08
-3.9378e-06
-5.20771e-08
-3.91739e-06
-7.88079e-08
-3.8903e-06
-1.05668e-07
-3.8565e-06
-1.32489e-07
-3.81601e-06
-1.59094e-07
-3.76891e-06
-1.85293e-07
-3.71531e-06
-2.10888e-07
-3.65539e-06
-2.35673e-07
-3.58939e-06
-2.59435e-07
-3.5176e-06
-2.81959e-07
-3.44036e-06
-3.03029e-07
-3.35808e-06
-3.2243e-07
-3.2712e-06
-3.39957e-07
-3.18023e-06
-3.55415e-07
-3.08574e-06
-3.68621e-07
-2.98831e-06
-3.79415e-07
-2.88858e-06
-3.87656e-07
-2.78723e-06
-3.93235e-07
-2.68495e-06
-3.9607e-07
-2.58245e-06
-3.96114e-07
-2.48045e-06
-3.93359e-07
-2.37968e-06
-3.87837e-07
-2.28083e-06
-3.79617e-07
-2.1846e-06
-3.68812e-07
-2.09165e-06
-3.55577e-07
-2.00258e-06
-3.401e-07
-1.91796e-06
-3.2261e-07
-1.83829e-06
-3.03364e-07
-1.76401e-06
-2.82644e-07
-1.69547e-06
-2.60753e-07
-1.63298e-06
-2.38005e-07
-1.57672e-06
-2.14718e-07
-1.52683e-06
-1.91211e-07
-1.48333e-06
-1.67788e-07
-1.44618e-06
-1.44743e-07
-1.41525e-06
-1.22344e-07
-1.39034e-06
-1.00831e-07
-1.37115e-06
-8.04113e-08
-1.35734e-06
-6.12534e-08
-1.3485e-06
-4.34875e-08
-1.34418e-06
-2.72055e-08
-1.3439e-06
-1.24651e-08
-1.34715e-06
7.04404e-10
-1.35342e-06
1.229e-08
-1.36222e-06
2.22855e-08
-1.37309e-06
3.06876e-08
-1.38559e-06
3.75264e-08
-1.39931e-06
4.28411e-08
-1.41387e-06
4.66747e-08
-1.42889e-06
4.90742e-08
-1.44405e-06
5.00921e-08
-1.45901e-06
4.97862e-08
-1.47349e-06
4.82198e-08
-1.4872e-06
4.54608e-08
-1.49988e-06
4.1581e-08
-1.51129e-06
3.6655e-08
-1.52117e-06
3.07589e-08
-1.52932e-06
2.39683e-08