/*--------------------------------*- C++ -*----------------------------------*\
  =========                 |
  \\      /  F ield         | OpenFOAM: The Open Source CFD Toolbox
   \\    /   O peration     | Website:  https://openfoam.org
    \\  /    A nd           | Version:  9
     \\/     M anipulation  |
\*---------------------------------------------------------------------------*/
FoamFile
{
    format      ascii;
    class       volVectorField;
    location    "0.14";
    object      U;
}
// * * * * * * * * * * * * * * * * * * * * * * * * * * * * * * * * * * * * * //

dimensions      [0 1 -1 0 0 0 0];

internalField   nonuniform List<vector> 
12225
(
(0.933876 -0.306872 0)
(0.897446 -0.0852911 0)
(0.798006 -0.000989516 0)
(0.695565 0.0122884 0)
(0.62353 0.0101647 0)
(0.572664 0.00744553 0)
(0.530832 0.00622872 0)
(0.492747 0.00597925 0)
(0.456144 0.00610034 0)
(0.419814 0.00629329 0)
(0.383365 0.00644068 0)
(0.346938 0.00648757 0)
(0.311015 0.00637356 0)
(0.276257 0.00596907 0)
(0.244786 0.00489904 0)
(0.217266 0.00230026 0)
(0.223269 -0.00927738 0)
(0.185797 0.0525185 0)
(1.02518 0.0799152 0)
(1.00298 0.0672715 0)
(0.96573 0.0360999 0)
(0.917886 0.0263005 0)
(0.871329 0.0220158 0)
(0.828815 0.0187337 0)
(0.788978 0.0169429 0)
(0.750652 0.0165343 0)
(0.712535 0.0169724 0)
(0.673321 0.0178343 0)
(0.632181 0.0188545 0)
(0.588812 0.019841 0)
(0.543339 0.0206098 0)
(0.49609 0.0208546 0)
(0.448249 0.0200348 0)
(0.399147 0.0148318 0)
(0.357185 0.00248026 0)
(0.274093 0.0623904 0)
(0.999781 0.0218811 0)
(0.999264 0.0354123 0)
(0.994772 0.0344378 0)
(0.974216 0.0330045 0)
(0.945896 0.0304453 0)
(0.914804 0.0277562 0)
(0.882265 0.0263928 0)
(0.84891 0.0265304 0)
(0.81448 0.0277781 0)
(0.77815 0.0297525 0)
(0.739154 0.0321518 0)
(0.697002 0.0347054 0)
(0.651493 0.0371427 0)
(0.60253 0.0390859 0)
(0.550395 0.0399001 0)
(0.49365 0.0366973 0)
(0.431619 0.0317135 0)
(0.343457 0.0983459 0)
(0.998191 0.00591929 0)
(1.00083 0.0283766 0)
(1.00454 0.0359432 0)
(0.99524 0.0376638 0)
(0.977686 0.0370206 0)
(0.955392 0.0357316 0)
(0.929663 0.0353752 0)
(0.901558 0.0364362 0)
(0.871349 0.0387665 0)
(0.838621 0.0420968 0)
(0.80279 0.046147 0)
(0.763339 0.050619 0)
(0.719884 0.0552043 0)
(0.672057 0.0595208 0)
(0.619614 0.062978 0)
(0.56107 0.0635166 0)
(0.493601 0.0663802 0)
(0.409273 0.133373 0)
(0.99917 0.00586799 0)
(1.00223 0.0278431 0)
(1.00767 0.0370034 0)
(1.00389 0.0405715 0)
(0.993052 0.0418935 0)
(0.977145 0.0423167 0)
(0.957033 0.0433341 0)
(0.933697 0.0456372 0)
(0.907581 0.0492988 0)
(0.878522 0.0541903 0)
(0.846105 0.0600997 0)
(0.809859 0.0667528 0)
(0.769331 0.0738534 0)
(0.724029 0.0810646 0)
(0.673482 0.0879108 0)
(0.616431 0.09323 0)
(0.550424 0.103287 0)
(0.473054 0.165552 0)
(0.999554 0.00711555 0)
(1.00248 0.0269255 0)
(1.00805 0.0368918 0)
(1.00723 0.0421916 0)
(1.00065 0.0453926 0)
(0.989305 0.0475984 0)
(0.973648 0.0501873 0)
(0.954427 0.0539511 0)
(0.932069 0.0591315 0)
(0.906538 0.0657356 0)
(0.877546 0.0736407 0)
(0.844698 0.0826299 0)
(0.807553 0.0924517 0)
(0.765617 0.102831 0)
(0.718395 0.113414 0)
(0.664928 0.123744 0)
(0.60371 0.139864 0)
(0.534932 0.196162 0)
(0.999608 0.0072975 0)
(1.00223 0.0253845 0)
(1.00737 0.0361695 0)
(1.0081 0.0430042 0)
(1.0042 0.0478938 0)
(0.996084 0.0518317 0)
(0.983902 0.0560629 0)
(0.968144 0.0614077 0)
(0.949146 0.0682263 0)
(0.92692 0.0766411 0)
(0.901268 0.0866199 0)
(0.871878 0.098016 0)
(0.838375 0.110633 0)
(0.800343 0.12425 0)
(0.757378 0.138608 0)
(0.708827 0.15369 0)
(0.654091 0.174731 0)
(0.594528 0.225737 0)
(0.999648 0.007094 0)
(1.00187 0.0238575 0)
(1.00634 0.0352494 0)
(1.00777 0.0433244 0)
(1.00555 0.049688 0)
(0.99971 0.0552463 0)
(0.990222 0.0611042 0)
(0.977347 0.06807 0)
(0.961316 0.0765812 0)
(0.942147 0.0868497 0)
(0.919709 0.0989223 0)
(0.893772 0.112719 0)
(0.864055 0.128092 0)
(0.830261 0.144859 0)
(0.792126 0.162812 0)
(0.749284 0.182146 0)
(0.701798 0.207073 0)
(0.651401 0.253885 0)
(0.999725 0.00690331 0)
(1.00153 0.0225537 0)
(1.00523 0.0342966 0)
(1.00689 0.0433448 0)
(1.0057 0.0509786 0)
(1.00148 0.0580153 0)
(0.994086 0.0654285 0)
(0.983612 0.0739934 0)
(0.970193 0.0841928 0)
(0.953843 0.0963015 0)
(0.934479 0.110428 0)
(0.911953 0.126545 0)
(0.886086 0.144539 0)
(0.85671 0.164238 0)
(0.82371 0.185453 0)
(0.786958 0.208419 0)
(0.746912 0.236316 0)
(0.705264 0.279941 0)
(0.999809 0.00676231 0)
(1.00123 0.0214714 0)
(1.0042 0.0333858 0)
(1.00583 0.0431948 0)
(1.00526 0.0519117 0)
(1.00222 0.0602712 0)
(0.996469 0.0691325 0)
(0.988012 0.0792275 0)
(0.976907 0.0910589 0)
(0.963163 0.104941 0)
(0.946736 0.121023 0)
(0.927553 0.13931 0)
(0.905536 0.159704 0)
(0.880636 0.182025 0)
(0.852866 0.206066 0)
(0.822275 0.231998 0)
(0.789504 0.262075 0)
(0.756002 0.303294 0)
(0.999879 0.00661982 0)
(1.00099 0.0205606 0)
(1.00332 0.0325349 0)
(1.0048 0.042932 0)
(1.00463 0.0525579 0)
(1.00246 0.0620764 0)
(0.99805 0.0722507 0)
(0.991325 0.0837646 0)
(0.982301 0.0971222 0)
(0.970984 0.112655 0)
(0.957369 0.130533 0)
(0.941448 0.150774 0)
(0.92323 0.173276 0)
(0.902763 0.197832 0)
(0.880158 0.224198 0)
(0.855577 0.252429 0)
(0.829697 0.28401 0)
(0.803646 0.323368 0)
(0.999924 0.00652899 0)
(1.00081 0.0199015 0)
(1.00267 0.0318679 0)
(1.00399 0.0426801 0)
(1.00407 0.0530014 0)
(1.00254 0.0634398 0)
(0.999166 0.0746863 0)
(0.993844 0.0873798 0)
(0.986568 0.102012 0)
(0.977349 0.118914 0)
(0.966215 0.138255 0)
(0.953208 0.160052 0)
(0.938399 0.18418 0)
(0.921904 0.210403 0)
(0.903889 0.238428 0)
(0.884575 0.268187 0)
(0.864601 0.300617 0)
(0.844838 0.33855 0)
(0.999966 0.00638991 0)
(1.00069 0.0193107 0)
(1.00219 0.0312262 0)
(1.0034 0.0423493 0)
(1.00368 0.0532391 0)
(1.00272 0.064456 0)
(1.00027 0.0766307 0)
(0.996231 0.0903577 0)
(0.990583 0.106107 0)
(0.983349 0.124197 0)
(0.97458 0.144788 0)
(0.964361 0.167876 0)
(0.952808 0.193314 0)
(0.940078 0.220828 0)
(0.926371 0.250078 0)
(0.911928 0.280881 0)
(0.897318 0.313741 0)
(0.883167 0.35036 0)
(0.999998 0.00625816 0)
(1.00061 0.018756 0)
(1.00185 0.030577 0)
(1.00299 0.0419416 0)
(1.00353 0.0533326 0)
(1.00318 0.0652693 0)
(1.00172 0.0783248 0)
(0.999066 0.093044 0)
(0.995192 0.109863 0)
(0.990136 0.129076 0)
(0.983975 0.150813 0)
(0.976825 0.175044 0)
(0.968835 0.201582 0)
(0.960186 0.230114 0)
(0.951086 0.260251 0)
(0.941766 0.2917 0)
(0.932689 0.324596 0)
(0.924196 0.359769 0)
(1.00002 0.00609295 0)
(1.0006 0.0181749 0)
(1.00172 0.0298342 0)
(1.00295 0.0413319 0)
(1.00387 0.0530994 0)
(1.00425 0.0656219 0)
(1.00392 0.0794194 0)
(1.00281 0.0949826 0)
(1.0009 0.112703 0)
(0.998243 0.132831 0)
(0.994938 0.155457 0)
(0.991116 0.180508 0)
(0.986939 0.207755 0)
(0.982589 0.236845 0)
(0.978253 0.26735 0)
(0.974121 0.298886 0)
(0.970536 0.33132 0)
(0.967577 0.364881 0)
(1.00004 0.00587093 0)
(1.00067 0.0174852 0)
(1.00189 0.028861 0)
(1.00341 0.0403206 0)
(1.00494 0.0522633 0)
(1.00627 0.0651418 0)
(1.00729 0.0794267 0)
(1.00795 0.0955515 0)
(1.00825 0.113852 0)
(1.00824 0.134524 0)
(1.00804 0.157606 0)
(1.00776 0.182975 0)
(1.00757 0.210362 0)
(1.00761 0.239384 0)
(1.00804 0.269589 0)
(1.00899 0.300541 0)
(1.01067 0.331938 0)
(1.01297 0.363636 0)
(1.00007 0.00553546 0)
(1.00086 0.0164996 0)
(1.00241 0.0273584 0)
(1.00452 0.0384945 0)
(1.00695 0.0502857 0)
(1.00955 0.0631497 0)
(1.01223 0.0775074 0)
(1.01496 0.0937324 0)
(1.01775 0.112098 0)
(1.02065 0.13274 0)
(1.02377 0.155639 0)
(1.0272 0.180628 0)
(1.03107 0.207406 0)
(1.03549 0.235577 0)
(1.04055 0.264688 0)
(1.0463 0.294292 0)
(1.05289 0.324007 0)
(1.06002 0.353505 0)
(1.0001 0.00498525 0)
(1.00118 0.0148938 0)
(1.00332 0.0248053 0)
(1.00635 0.0351441 0)
(1.01004 0.0462668 0)
(1.01426 0.0585491 0)
(1.01895 0.0723579 0)
(1.02406 0.0880053 0)
(1.02962 0.105701 0)
(1.03567 0.125522 0)
(1.04226 0.147399 0)
(1.04947 0.17113 0)
(1.05738 0.196399 0)
(1.06603 0.222815 0)
(1.07546 0.249947 0)
(1.08566 0.27737 0)
(1.0967 0.304693 0)
(1.10822 0.331537 0)
(1.00015 0.00405627 0)
(1.00166 0.0121555 0)
(1.00465 0.020374 0)
(1.00892 0.0291532 0)
(1.01422 0.0388143 0)
(1.02039 0.0496768 0)
(1.02735 0.0620452 0)
(1.03507 0.076168 0)
(1.04355 0.0921963 0)
(1.05279 0.110159 0)
(1.06284 0.129955 0)
(1.07373 0.151366 0)
(1.08546 0.174083 0)
(1.09804 0.197739 0)
(1.11144 0.221945 0)
(1.12563 0.246321 0)
(1.14059 0.270517 0)
(1.15595 0.294185 0)
(1.00019 0.00289464 0)
(1.00214 0.00862199 0)
(1.006 0.0146115 0)
(1.01148 0.0213229 0)
(1.01821 0.0290273 0)
(1.02598 0.0379714 0)
(1.03471 0.0483889 0)
(1.04436 0.0604631 0)
(1.05491 0.0742953 0)
(1.06639 0.0898825 0)
(1.0788 0.107112 0)
(1.09216 0.12577 0)
(1.10647 0.145567 0)
(1.12171 0.166171 0)
(1.13783 0.187236 0)
(1.15476 0.208432 0)
(1.17245 0.22946 0)
(1.19061 0.250034 0)
(1.00021 0.00175402 0)
(1.0025 0.0051654 0)
(1.00709 0.00904154 0)
(1.01351 0.013874 0)
(1.02126 0.0198507 0)
(1.03008 0.0271281 0)
(1.03987 0.0358614 0)
(1.05059 0.046165 0)
(1.06224 0.0580911 0)
(1.07485 0.0716114 0)
(1.08846 0.0866072 0)
(1.10308 0.102874 0)
(1.11871 0.120145 0)
(1.13532 0.138115 0)
(1.15288 0.156475 0)
(1.17129 0.174935 0)
(1.19053 0.193234 0)
(1.21031 0.211136 0)
(1.0002 0.000642383 0)
(1.00275 0.00166938 0)
(1.00802 0.00345751 0)
(1.01524 0.00655068 0)
(1.02373 0.0109891 0)
(1.03321 0.0168176 0)
(1.04357 0.0240975 0)
(1.05478 0.0328586 0)
(1.06687 0.043097 0)
(1.07992 0.0547603 0)
(1.09397 0.0677267 0)
(1.10909 0.081804 0)
(1.12528 0.0967464 0)
(1.14253 0.112281 0)
(1.1608 0.128131 0)
(1.18001 0.14404 0)
(1.20012 0.159786 0)
(1.22088 0.175167 0)
(1.00013 -0.000366516 0)
(1.00281 -0.00178494 0)
(1.00872 -0.00197224 0)
(1.01663 -0.00037923 0)
(1.02561 0.00279091 0)
(1.03538 0.00746696 0)
(1.04584 0.0135985 0)
(1.05699 0.021106 0)
(1.06892 0.0299222 0)
(1.08176 0.0399717 0)
(1.09564 0.0511326 0)
(1.11063 0.0632281 0)
(1.12678 0.0760384 0)
(1.14409 0.0893223 0)
(1.16253 0.10284 0)
(1.18204 0.11637 0)
(1.20253 0.129726 0)
(1.22382 0.142737 0)
(0.99998 -0.00120762 0)
(1.00259 -0.00522017 0)
(1.00919 -0.00717581 0)
(1.01766 -0.00675147 0)
(1.02682 -0.00452532 0)
(1.03645 -0.000655789 0)
(1.04648 0.00466924 0)
(1.05697 0.0112299 0)
(1.06811 0.0188915 0)
(1.08016 0.0275615 0)
(1.09328 0.0371244 0)
(1.10762 0.0474252 0)
(1.12325 0.0582763 0)
(1.14018 0.0694737 0)
(1.1584 0.0808165 0)
(1.17782 0.0921229 0)
(1.19837 0.10324 0)
(1.21986 0.11403 0)
(0.999691 -0.00152931 0)
(1.002 -0.00855048 0)
(1.00943 -0.0120817 0)
(1.01825 -0.0124382 0)
(1.0271 -0.0107762 0)
(1.03597 -0.00732931 0)
(1.04485 -0.0024665 0)
(1.05393 0.00342848 0)
(1.06361 0.0101607 0)
(1.07424 0.0176348 0)
(1.08609 0.0257542 0)
(1.09933 0.034398 0)
(1.11405 0.0434195 0)
(1.1303 0.052658 0)
(1.14802 0.0619557 0)
(1.16714 0.0711716 0)
(1.18753 0.0801904 0)
(1.20903 0.088903 0)
(0.998823 -0.000283575 0)
(1.00063 -0.0110655 0)
(1.00931 -0.0162963 0)
(1.01806 -0.0171824 0)
(1.02568 -0.0156858 0)
(1.03273 -0.0122638 0)
(1.03941 -0.00756894 0)
(1.04615 -0.00214484 0)
(1.05357 0.00378908 0)
(1.06218 0.0101599 0)
(1.07229 0.0169078 0)
(1.0841 0.0239645 0)
(1.09769 0.0312344 0)
(1.11308 0.0386041 0)
(1.13018 0.0459606 0)
(1.14889 0.0532031 0)
(1.16905 0.0602532 0)
(1.19049 0.0670323 0)
(0.996594 0.00174576 0)
(0.997918 -0.0124866 0)
(1.00817 -0.0191641 0)
(1.01582 -0.0204969 0)
(1.02051 -0.0188217 0)
(1.02396 -0.0150754 0)
(1.02689 -0.0103751 0)
(1.0301 -0.00537822 0)
(1.03443 -0.000255775 0)
(1.04047 0.00498481 0)
(1.04853 0.0103374 0)
(1.05875 0.0158094 0)
(1.07115 0.0213619 0)
(1.08565 0.0269272 0)
(1.10215 0.0324327 0)
(1.12047 0.0378128 0)
(1.14042 0.0430208 0)
(1.16181 0.0480116 0)
(0.995098 -0.00810245 0)
(0.995827 -0.0192691 0)
(1.00483 -0.0219767 0)
(1.00771 -0.0222059 0)
(1.00599 -0.0198398 0)
(1.0029 -0.015533 0)
(0.999906 -0.0108206 0)
(0.998213 -0.00636642 0)
(0.998707 -0.00219323 0)
(1.00181 0.00179463 0)
(1.00771 0.00567818 0)
(1.0164 0.00954924 0)
(1.0277 0.013419 0)
(1.04144 0.0172551 0)
(1.05742 0.0210142 0)
(1.07543 0.024657 0)
(1.09523 0.0281576 0)
(1.11659 0.031502 0)
(1.01452 -0.067552 0)
(1.00866 -0.0621662 0)
(0.997962 -0.03452 0)
(0.981369 -0.0236879 0)
(0.964182 -0.0187228 0)
(0.94931 -0.0139278 0)
(0.9376 -0.00949316 0)
(0.929723 -0.00578671 0)
(0.925946 -0.00269181 0)
(0.92608 -8.4707e-05 0)
(0.930016 0.00236045 0)
(0.937327 0.00474522 0)
(0.947637 0.0070958 0)
(0.960654 0.00939356 0)
(0.976112 0.0116105 0)
(0.993734 0.0137263 0)
(1.01323 0.0157235 0)
(1.03437 0.0176151 0)
(0.966827 0.255146 0)
(0.9708 0.086471 0)
(0.914263 0.0104312 0)
(0.843069 -0.00649941 0)
(0.790827 -0.00720698 0)
(0.757516 -0.00480397 0)
(0.736229 -0.00261806 0)
(0.723189 -0.00107988 0)
(0.716606 -9.92116e-06 0)
(0.714968 0.00066887 0)
(0.716793 0.00136034 0)
(0.721849 0.00209802 0)
(0.72998 0.00287355 0)
(0.74093 0.00365711 0)
(0.754393 0.00441832 0)
(0.770038 0.00514078 0)
(0.787534 0.00580732 0)
(0.806493 0.00644943 0)
(0.03379 -0.0457613 -1.17009e-20)
(0.115919 -0.124348 9.72141e-21)
(0.225517 -0.164037 0)
(0.341791 -0.173785 0)
(0.450478 -0.165938 0)
(0.54543 -0.148726 -7.73517e-21)
(0.624249 -0.126677 0)
(0.685764 -0.102064 0)
(0.72887 -0.0757787 0)
(0.754021 -0.0476653 0)
(0.758909 -0.0176678 8.09612e-21)
(0.741328 0.0121261 0)
(0.705455 0.0382088 0)
(0.65631 0.0574372 0)
(0.599453 0.0680928 0)
(0.540579 0.0701624 8.81333e-21)
(0.484277 0.065281 0)
(0.432889 0.0563754 0)
(0.386262 0.046905 0)
(0.342459 0.039743 0)
(0.298813 0.0364316 0)
(0.252712 0.0372991 0)
(0.202109 0.0417139 0)
(0.145659 0.0483433 1.23689e-20)
(0.0826765 0.055656 -1.33014e-20)
(0.0126249 0.0625655 1.39517e-20)
(-0.0649423 0.0690292 1.38917e-20)
(-0.149788 0.0754314 0)
(-0.241908 0.0818851 0)
(-0.341013 0.0882907 -1.31155e-20)
(-0.446596 0.0944714 -1.29764e-20)
(-0.558021 0.100246 0)
(-0.674548 0.105454 0)
(-0.795367 0.109969 -1.28907e-20)
(-0.919628 0.113706 0)
(-1.04648 0.116621 0)
(-1.17508 0.118708 1.32033e-20)
(-1.30465 0.11999 0)
(-1.43445 0.120513 1.35618e-20)
(-1.56381 0.120338 2.7542e-20)
(-1.69212 0.119532 0)
(-1.81887 0.118163 0)
(-1.94359 0.116298 0)
(-2.06585 0.113994 0)
(-2.18531 0.111301 0)
(-2.30165 0.108259 3.03968e-20)
(-2.41457 0.104899 3.08744e-20)
(-2.5238 0.101242 3.13402e-20)
(-2.6291 0.0973013 0)
(-2.73021 0.093083 -3.22222e-20)
(-2.82689 0.0885875 0)
(-2.9189 0.083811 3.3017e-20)
(-3.00597 0.0787462 3.33744e-20)
(-3.08784 0.073384 0)
(-3.16423 0.0677156 0)
(-3.23485 0.0617338 0)
(-3.2994 0.0554369 3.44776e-20)
(-3.35755 0.0488335 0)
(-3.40898 0.0419451 0)
(-3.45336 0.0348151 0)
(-3.49036 0.0275297 0)
(-3.51966 0.0202211 0)
(-3.54105 0.0130778 0)
(-3.55418 0.00641929 0)
(-3.55883 0.000513482 0)
(-3.55627 -0.00462975 -3.44017e-20)
(-3.54713 -0.00931741 0)
(-3.53151 -0.0137824 0)
(-3.50955 -0.0181067 3.32018e-20)
(-3.48135 -0.0223055 3.26581e-20)
(-3.44701 -0.0263684 0)
(-3.40666 -0.0302737 -3.13607e-20)
(-3.36049 -0.0339937 3.0611e-20)
(-3.30871 -0.0374984 0)
(-3.25157 -0.0407565 -2.89245e-20)
(-3.18941 -0.0437368 0)
(-3.12258 -0.0464089 0)
(-3.05149 -0.0487441 2.59886e-20)
(-2.9766 -0.050716 0)
(-2.89843 -0.0523017 -2.38219e-20)
(-2.8175 -0.0534822 0)
(-2.73439 -0.0542437 2.15473e-20)
(-2.64971 -0.0545777 2.03875e-20)
(-2.56407 -0.0544822 1.92226e-20)
(-2.4781 -0.0539623 3.61209e-20)
(-2.39244 -0.0530301 -3.38177e-20)
(-2.30772 -0.0517053 0)
(-2.22452 -0.0500146 0)
(-2.14344 -0.0479921 0)
(-2.06501 -0.0456781 -2.51171e-20)
(-1.98972 -0.0431197 -2.31399e-20)
(-1.91801 -0.0403687 2.12661e-20)
(-1.85025 -0.037481 0)
(-1.78674 -0.0345134 -1.78665e-20)
(-1.7277 -0.0315216 -1.63561e-20)
(-1.67331 -0.0285564 -1.49797e-20)
(-1.62364 -0.0256613 0)
(-1.57871 -0.0228702 0)
(-1.53848 -0.0202061 0)
(-1.50288 -0.0176817 -1.08698e-20)
(-1.47177 -0.0153016 0)
(-1.445 -0.0130652 0)
(-1.4224 -0.0109704 9.23692e-21)
(-1.40377 -0.00901634 0)
(-1.3889 -0.00720488 0)
(-1.37755 -0.00553713 8.72633e-21)
(-1.36949 -0.0040144 0)
(-1.36446 -0.0026192 0)
(-1.36223 -0.00129779 -9.1439e-21)
(-1.36252 5.45421e-05 -9.44471e-21)
(-1.36519 0.0014749 0)
(-1.37018 0.00273224 1.0218e-20)
(-1.37724 0.00377585 0)
(-1.38606 0.00459557 -1.11579e-20)
(-1.39627 0.00519004 0)
(-1.40748 0.00556178 -1.21842e-20)
(-1.41931 0.00571575 -1.27058e-20)
(-1.43138 0.00565907 0)
(-1.4433 0.00540134 0)
(-1.45471 0.00495507 0)
(-1.46524 0.00433709 0)
(-1.47455 0.00357002 0)
(-1.48228 0.00268151 0)
(-1.48813 0.00171597 0)
(-1.49179 0.000719079 -1.6049e-20)
(-1.49318 -0.000297138 1.62634e-20)
(-1.49243 -0.00129298 0)
(-1.48936 -0.00232116 0)
(-1.48385 -0.00338735 0)
(-1.4758 -0.00448602 0)
(-1.4651 -0.00560824 3.27532e-20)
(-1.45169 -0.00674459 0)
(-1.43553 -0.00789245 -3.18835e-20)
(-1.41661 -0.00910021 3.12341e-20)
(-1.39512 -0.0106569 0)
(-1.37097 -0.0133354 0)
(-1.34209 -0.0214051 0)
(-1.30701 -0.0329307 -2.72069e-20)
(-1.26961 -0.0271188 -2.59443e-20)
(-1.23127 -0.0186305 0)
(-1.19029 -0.0205448 -2.2963e-20)
(-1.14605 -0.0200022 -2.12994e-20)
(-1.09826 -0.0215608 1.95139e-20)
(-1.04665 -0.0229479 0)
(-0.993003 -0.0197334 0)
(-0.936759 -0.021365 1.35785e-20)
(-0.873285 -0.0391138 0)
(-0.808109 -0.0357362 0)
(-0.741083 -0.0239023 0)
(-0.670813 -0.0313183 0)
(-0.597777 -0.0324063 -2.45465e-21)
(-0.520197 -0.0377797 -8.08379e-23)
(-0.441884 -0.0373999 0)
(-0.361399 -0.032223 4.24829e-21)
(-0.276945 -0.0373238 0)
(-0.19224 -0.0380455 0)
(-0.103682 -0.0362462 1.0148e-20)
(-0.0156868 -0.0396638 0)
(0.0721436 -0.0383598 1.15994e-20)
(0.162846 -0.0364157 0)
(0.252541 -0.036668 0)
(0.341767 -0.0401188 1.24424e-20)
(0.432787 -0.038882 0)
(0.522667 -0.0366808 1.23514e-20)
(0.610382 -0.0239355 0)
(0.693034 -0.0327818 0)
(0.77648 -0.0272303 0)
(0.854993 -0.0179757 -9.31079e-21)
(0.927372 -0.0266982 0)
(0.998339 -0.0269705 7.38373e-21)
(1.06404 -0.0254562 0)
(1.12334 -0.0234434 0)
(1.1758 -0.021187 0)
(1.22062 -0.0186361 0)
(1.25668 -0.0155327 0)
(1.28242 -0.0106294 0)
(1.29165 -0.00379072 0)
(1.27726 0.00384153 -3.65038e-21)
(1.2401 0.014808 0)
(1.14738 0.0253501 0)
(0.0780827 -0.26732 2.9661e-20)
(0.169822 -0.357205 -2.15607e-20)
(0.255701 -0.356091 0)
(0.329023 -0.325924 1.15508e-20)
(0.387379 -0.283509 0)
(0.432424 -0.235355 5.1657e-21)
(0.465715 -0.184572 -1.11519e-20)
(0.487993 -0.132669 -1.13803e-20)
(0.499682 -0.0802987 0)
(0.500884 -0.0276461 -1.20683e-20)
(0.49379 0.02414 -6.04071e-21)
(0.479852 0.0720985 0)
(0.456722 0.112355 0)
(0.423128 0.141332 0)
(0.378959 0.157119 0)
(0.325328 0.160738 -6.4107e-21)
(0.263824 0.156349 0)
(0.19558 0.149646 1.27022e-20)
(0.120999 0.145537 0)
(0.0401145 0.146726 0)
(-0.0472484 0.153714 -1.31542e-20)
(-0.141369 0.165595 0)
(-0.242263 0.180871 1.25402e-20)
(-0.350043 0.198084 -6.46246e-21)
(-0.464655 0.216003 6.38672e-21)
(-0.58556 0.233699 -6.33519e-21)
(-0.711784 0.250558 -6.30834e-21)
(-0.842311 0.266165 0)
(-0.976137 0.280132 0)
(-1.11219 0.292112 6.40084e-21)
(-1.24937 0.301861 -6.20883e-21)
(-1.38658 0.309245 0)
(-1.52284 0.314236 0)
(-1.65723 0.316893 6.94252e-21)
(-1.78901 0.317349 0)
(-1.91755 0.315787 0)
(-2.04234 0.312422 -7.60916e-21)
(-2.163 0.307487 0)
(-2.27926 0.301215 8.12374e-21)
(-2.39094 0.293826 -1.68323e-20)
(-2.49792 0.285524 0)
(-2.60015 0.276489 0)
(-2.69761 0.266872 -3.71639e-20)
(-2.79032 0.256801 -3.8328e-20)
(-2.87831 0.246372 -3.94767e-20)
(-2.96162 0.235663 2.03199e-20)
(-3.04027 0.224727 -2.083e-20)
(-3.11432 0.2136 -6.41174e-20)
(-3.18377 0.202304 4.37764e-20)
(-3.24864 0.190847 2.23435e-20)
(-3.30895 0.179231 0)
(-3.36468 0.16745 -2.32128e-20)
(-3.41582 0.155496 2.36966e-20)
(-3.46235 0.143357 0)
(-3.50425 0.131021 0)
(-3.54151 0.118479 0)
(-3.57409 0.105721 -2.47237e-20)
(-3.60201 0.0927425 0)
(-3.62527 0.0795451 5.0298e-20)
(-3.64392 0.066136 0)
(-3.65802 0.0525424 5.05447e-20)
(-3.66771 0.0388318 0)
(-3.67311 0.0251382 -5.03683e-20)
(-3.67442 0.0117033 0)
(-3.67177 -0.00121358 4.96537e-20)
(-3.66407 -0.0135574 -2.47962e-20)
(-3.65053 -0.02547 0)
(-3.63094 -0.037048 -4.76428e-20)
(-3.60521 -0.0483236 -2.30593e-20)
(-3.57332 -0.0592759 -2.25472e-20)
(-3.53534 -0.0698565 0)
(-3.49137 -0.0800027 -2.21761e-20)
(-3.44156 -0.0896439 -2.07397e-20)
(-3.38614 -0.098706 0)
(-3.32534 -0.107114 1.93435e-20)
(-3.25949 -0.114796 -3.81467e-20)
(-3.18893 -0.12168 0)
(-3.11407 -0.127701 -1.70466e-20)
(-3.03536 -0.132801 0)
(-2.9533 -0.136929 4.73337e-20)
(-2.86842 -0.140045 0)
(-2.78131 -0.142119 -4.24556e-20)
(-2.69255 -0.143134 -1.30017e-20)
(-2.60279 -0.143086 1.32095e-20)
(-2.51266 -0.141987 2.48113e-20)
(-2.42282 -0.139863 -2.32291e-20)
(-2.33391 -0.136755 0)
(-2.24657 -0.132719 0)
(-2.16143 -0.127827 0)
(-2.07908 -0.122161 4.8872e-20)
(-2.00006 -0.115817 1.45541e-20)
(-1.92487 -0.1089 -1.34115e-20)
(-1.85398 -0.101526 0)
(-1.78776 -0.0938129 -1.24372e-20)
(-1.72653 -0.0858826 1.04775e-20)
(-1.67053 -0.0778544 9.67081e-21)
(-1.61994 -0.0698424 0)
(-1.57483 -0.0619515 0)
(-1.53522 -0.0542742 0)
(-1.50103 -0.0468882 7.31643e-21)
(-1.47213 -0.039854 0)
(-1.44831 -0.0332155 -1.34533e-20)
(-1.42932 -0.0270014 -1.94022e-20)
(-1.41486 -0.0212286 1.26317e-20)
(-1.40462 -0.0159069 0)
(-1.39829 -0.0110424 6.18169e-21)
(-1.39555 -0.00664203 0)
(-1.39609 -0.00270496 1.28956e-20)
(-1.39957 0.000801318 -6.55191e-21)
(-1.40571 0.00396373 -6.79408e-21)
(-1.41408 0.00683943 0)
(-1.42407 0.00930298 -2.27565e-20)
(-1.43524 0.0113008 1.58618e-20)
(-1.44724 0.012819 8.43178e-21)
(-1.45974 0.0138605 0)
(-1.47243 0.0144375 9.27374e-21)
(-1.48501 0.014567 2.89757e-20)
(-1.4972 0.0142701 0)
(-1.50873 0.013571 2.0992e-20)
(-1.51936 0.0124961 2.1806e-20)
(-1.52889 0.0110755 2.25741e-20)
(-1.53714 0.00934419 0)
(-1.54395 0.0073444 0)
(-1.54922 0.00513232 0)
(-1.55284 0.00277151 -1.25244e-20)
(-1.5546 0.000293635 -1.26251e-20)
(-1.55408 -0.00226611 0)
(-1.55113 -0.00492187 -2.5768e-20)
(-1.5456 -0.00766537 -2.58227e-20)
(-1.53736 -0.0104788 0)
(-1.5263 -0.0133395 -2.53812e-20)
(-1.51231 -0.0162201 -5.0644e-20)
(-1.49528 -0.0190841 2.46564e-20)
(-1.47505 -0.0218871 2.47215e-20)
(-1.45142 -0.0246088 0)
(-1.42426 -0.027028 0)
(-1.39428 -0.0289347 0)
(-1.36213 -0.0312934 2.08463e-20)
(-1.32631 -0.034785 -2.08128e-20)
(-1.2863 -0.0387562 -3.84231e-20)
(-1.24281 -0.0423167 1.75253e-20)
(-1.19643 -0.0452936 -1.72328e-20)
(-1.14685 -0.0482325 -1.48287e-20)
(-1.0942 -0.0512192 0)
(-1.03788 -0.0542377 0)
(-0.977697 -0.0567307 1.14587e-20)
(-0.914993 -0.0576445 0)
(-0.849406 -0.0595292 0)
(-0.780753 -0.064016 -1.15447e-20)
(-0.707762 -0.0660272 0)
(-0.632805 -0.0677742 -3.24936e-21)
(-0.554719 -0.0691021 5.99242e-23)
(-0.473854 -0.0700637 0)
(-0.391588 -0.0732332 1.7425e-21)
(-0.30621 -0.0743147 0)
(-0.219198 -0.0746615 0)
(-0.130159 -0.0765971 -7.38511e-21)
(-0.0395364 -0.0746495 1.43664e-20)
(0.0504254 -0.0747256 -8.6548e-21)
(0.14268 -0.0745616 0)
(0.234829 -0.0732538 0)
(0.325472 -0.0718667 8.19087e-21)
(0.41636 -0.0711391 0)
(0.506961 -0.0698134 8.35568e-21)
(0.59716 -0.0693569 0)
(0.683634 -0.0648935 0)
(0.767474 -0.0636064 0)
(0.849525 -0.0595627 7.26446e-21)
(0.926404 -0.0549033 0)
(0.998912 -0.0501773 -5.78854e-21)
(1.06676 -0.0452766 0)
(1.12911 -0.0399724 0)
(1.18511 -0.034222 6.73384e-21)
(1.23389 -0.0279006 -5.49651e-21)
(1.27447 -0.0206837 0)
(1.30545 -0.0115856 0)
(1.32755 -7.24234e-05 0)
(1.33892 0.0138892 8.37177e-21)
(1.3378 0.0331843 0)
(1.31064 0.0548954 -7.42899e-21)
(0.0550645 -0.498304 6.47361e-22)
(0.12101 -0.534623 2.63432e-20)
(0.168011 -0.480963 0)
(0.203226 -0.416126 -2.01764e-20)
(0.227573 -0.348413 0)
(0.242354 -0.279598 0)
(0.248623 -0.210698 -1.81371e-22)
(0.246917 -0.142413 9.59073e-21)
(0.237559 -0.0752659 9.91942e-21)
(0.220945 -0.00970004 1.02288e-20)
(0.197634 0.0539389 0)
(0.168292 0.114393 0)
(0.133286 0.168815 -1.05859e-20)
(0.0923263 0.213673 -2.12511e-20)
(0.0443977 0.246706 2.12051e-20)
(-0.0118417 0.268561 0)
(-0.0776763 0.282752 1.97394e-20)
(-0.153731 0.293933 -9.53482e-21)
(-0.239965 0.306056 0)
(-0.335628 0.321403 1.75123e-20)
(-0.439513 0.340521 8.70801e-21)
(-0.550213 0.362695 -1.67548e-20)
(-0.666295 0.386607 -8.44531e-21)
(-0.786427 0.41084 0)
(-0.909387 0.434152 1.651e-20)
(-1.03399 0.455603 1.6643e-20)
(-1.15905 0.474499 0)
(-1.28345 0.490301 1.72068e-20)
(-1.40622 0.502634 0)
(-1.52655 0.511313 1.81325e-20)
(-1.64384 0.516324 9.20918e-21)
(-1.75762 0.517796 0)
(-1.86763 0.515967 0)
(-1.97372 0.511151 0)
(-2.07587 0.503708 0)
(-2.17414 0.494016 0)
(-2.26868 0.48245 0)
(-2.35965 0.469365 2.42816e-20)
(-2.44722 0.45508 -3.7579e-20)
(-2.53159 0.439879 0)
(-2.61293 0.423998 0)
(-2.69139 0.40763 0)
(-2.76709 0.390926 -3.11829e-22)
(-2.84013 0.373997 2.94608e-20)
(-2.91058 0.356922 6.09704e-20)
(-2.97845 0.339747 -6.26807e-20)
(-3.04377 0.322499 -3.2273e-20)
(-3.1065 0.305184 3.28476e-20)
(-3.1666 0.287794 1.94122e-22)
(-3.22399 0.270312 3.44885e-20)
(-3.27858 0.252717 0)
(-3.33025 0.234983 3.57345e-20)
(-3.37888 0.217088 1.93868e-22)
(-3.42432 0.199012 0)
(-3.46641 0.180743 0)
(-3.50499 0.162277 -3.75353e-20)
(-3.53988 0.14362 0)
(-3.5709 0.124791 0)
(-3.59788 0.105822 3.84827e-20)
(-3.62062 0.0867566 7.65124e-20)
(-3.63892 0.0676469 -3.78994e-20)
(-3.65258 0.048544 0)
(-3.66132 0.0294857 3.75976e-20)
(-3.66485 0.0104698 0)
(-3.66285 -0.00855703 3.78403e-20)
(-3.65504 -0.0275907 3.63224e-20)
(-3.64126 -0.0464995 -7.25599e-20)
(-3.62142 -0.0651518 -3.62218e-20)
(-3.59546 -0.0834319 0)
(-3.56336 -0.101231 6.82027e-20)
(-3.52516 -0.118436 0)
(-3.48095 -0.13493 9.61983e-20)
(-3.43088 -0.15059 6.26169e-20)
(-3.37513 -0.165294 6.05292e-20)
(-3.31393 -0.17892 -5.83489e-20)
(-3.2476 -0.191348 8.33656e-20)
(-3.17646 -0.202466 0)
(-3.10092 -0.212171 0)
(-3.0214 -0.220369 -4.89726e-20)
(-2.93841 -0.22698 -6.9025e-20)
(-2.85246 -0.231941 0)
(-2.76413 -0.235204 2.00655e-20)
(-2.67401 -0.236744 0)
(-2.58273 -0.236556 -5.4534e-20)
(-2.49094 -0.234656 1.40025e-21)
(-2.39928 -0.231086 -1.34558e-21)
(-2.30843 -0.225911 2.99836e-20)
(-2.21902 -0.219218 0)
(-2.1317 -0.211118 -2.57842e-20)
(-2.04708 -0.201742 1.06458e-21)
(-1.96574 -0.191241 0)
(-1.8882 -0.179778 0)
(-1.81495 -0.167533 0)
(-1.74641 -0.154692 1.63539e-20)
(-1.68293 -0.141445 0)
(-1.62482 -0.127982 0)
(-1.57228 -0.114486 0)
(-1.52544 -0.101132 0)
(-1.48438 -0.0880772 0)
(-1.44906 -0.0754646 1.06726e-20)
(-1.4194 -0.0634138 0)
(-1.39523 -0.0520211 9.51153e-21)
(-1.37629 -0.0413583 9.22274e-21)
(-1.36231 -0.0314728 -9.05445e-21)
(-1.35292 -0.0223907 0)
(-1.34776 -0.014121 -9.06499e-21)
(-1.34643 -0.00665975 0)
(-1.3485 4.12568e-06 -9.50253e-21)
(-1.35355 0.00588927 9.84762e-21)
(-1.36109 0.0109734 3.04297e-20)
(-1.37072 0.0152243 0)
(-1.38202 0.0186864 3.36571e-20)
(-1.3946 0.021377 1.16055e-20)
(-1.4081 0.0233124 0)
(-1.42218 0.0245157 2.63173e-20)
(-1.43654 0.0250174 2.7757e-20)
(-1.45087 0.0248541 -4.39219e-20)
(-1.46489 0.0240673 0)
(-1.47834 0.0227025 -1.60927e-20)
(-1.49097 0.0208088 -1.67472e-20)
(-1.50254 0.0184369 -5.20651e-20)
(-1.51284 0.015639 0)
(-1.52166 0.012466 0)
(-1.52879 0.00896364 0)
(-1.53402 0.00517083 -1.94863e-20)
(-1.53714 0.00112955 0)
(-1.53794 -0.00313439 0)
(-1.53629 -0.00758207 1.99727e-20)
(-1.53205 -0.0121806 2.00228e-20)
(-1.52507 -0.0168999 0)
(-1.51525 -0.021712 0)
(-1.50248 -0.0265921 3.92895e-20)
(-1.48666 -0.031524 0)
(-1.46767 -0.036511 -3.78838e-20)
(-1.44539 -0.0415969 -3.75218e-20)
(-1.41968 -0.0469084 0)
(-1.39099 -0.0525202 0)
(-1.36001 -0.0579843 3.36846e-20)
(-1.32574 -0.0622371 -7.32347e-22)
(-1.28721 -0.0663757 -8.11992e-22)
(-1.24508 -0.0711099 0)
(-1.19973 -0.0756434 5.22944e-20)
(-1.15106 -0.0802451 0)
(-1.09924 -0.0847278 0)
(-1.04385 -0.0889379 0)
(-0.984775 -0.0934925 -1.65389e-20)
(-0.923186 -0.0981687 0)
(-0.858917 -0.101478 2.47498e-20)
(-0.790707 -0.104998 8.75259e-21)
(-0.719185 -0.10871 0)
(-0.645181 -0.112055 3.8024e-21)
(-0.568454 -0.115098 0)
(-0.489113 -0.117164 0)
(-0.407327 -0.119391 -8.36046e-21)
(-0.323498 -0.121542 9.0643e-21)
(-0.237873 -0.123084 0)
(-0.150502 -0.124198 1.71513e-20)
(-0.0617465 -0.123681 -1.12903e-20)
(0.0275989 -0.123791 0)
(0.118131 -0.123371 0)
(0.208979 -0.121684 0)
(0.299017 -0.120264 -4.10848e-20)
(0.388288 -0.119232 0)
(0.476965 -0.116677 -1.44942e-20)
(0.565037 -0.112738 0)
(0.651335 -0.10796 0)
(0.734267 -0.104124 0)
(0.816018 -0.0974704 0)
(0.893712 -0.0915153 0)
(0.966739 -0.0850332 0)
(1.03514 -0.0777049 -1.51829e-20)
(1.09828 -0.0695749 0)
(1.15537 -0.0606566 -5.80581e-21)
(1.20559 -0.0508194 1.36175e-20)
(1.24807 -0.0397327 0)
(1.28183 -0.0268447 0)
(1.30677 -0.0112872 -4.68632e-21)
(1.32195 0.00816717 -4.72758e-21)
(1.32691 0.0339973 4.5722e-21)
(1.31943 0.0655969 6.5907e-21)
(0.0171801 -0.62416 -5.0822e-20)
(0.0501711 -0.602147 -3.70594e-20)
(0.0597391 -0.525554 -2.06845e-20)
(0.0640673 -0.443727 -9.24945e-21)
(0.0626629 -0.360449 0)
(0.0552274 -0.276856 1.71003e-20)
(0.0418714 -0.193706 -8.37004e-21)
(0.0227242 -0.111637 0)
(-0.00209751 -0.0312975 -9.01817e-21)
(-0.0324723 0.0466449 0)
(-0.0681899 0.121275 1.74228e-20)
(-0.108883 0.191277 0)
(-0.154311 0.254797 8.68955e-21)
(-0.204768 0.309991 1.68654e-20)
(-0.261246 0.356044 -1.62409e-20)
(-0.32512 0.393882 0)
(-0.397553 0.425915 -1.49373e-20)
(-0.478978 0.455001 0)
(-0.568922 0.483397 0)
(-0.666168 0.512229 -1.35312e-20)
(-0.769064 0.54152 0)
(-0.875825 0.570531 -7.424e-23)
(-0.984749 0.598187 0)
(-1.09434 0.62341 0)
(-1.20333 0.645311 2.79436e-22)
(-1.31074 0.663274 -1.31946e-20)
(-1.41578 0.676947 -1.38418e-20)
(-1.5179 0.686199 -1.37414e-20)
(-1.61677 0.691081 0)
(-1.71225 0.691798 -2.96864e-20)
(-1.80435 0.688669 0)
(-1.89323 0.682093 -1.62172e-20)
(-1.97912 0.672511 0)
(-2.06227 0.660376 0)
(-2.143 0.64613 1.81308e-20)
(-2.22157 0.630184 0)
(-2.29826 0.612907 -1.95232e-20)
(-2.37328 0.594618 4.94379e-22)
(-2.44682 0.575583 4.14703e-20)
(-2.51901 0.556018 -4.34029e-20)
(-2.58994 0.536088 0)
(-2.65966 0.515914 0)
(-2.72818 0.495579 -2.42613e-20)
(-2.79546 0.475131 0)
(-2.86144 0.454588 -2.49886e-20)
(-2.92604 0.433949 2.56904e-20)
(-2.98912 0.413194 2.63686e-20)
(-3.05055 0.39229 0)
(-3.11017 0.371196 -2.76403e-20)
(-3.16779 0.349867 -2.82268e-20)
(-3.22322 0.328256 5.8161e-20)
(-3.27625 0.306317 -2.92846e-20)
(-3.32666 0.28401 -2.97494e-20)
(-3.37421 0.261301 0)
(-3.41865 0.238164 0)
(-3.45974 0.214584 3.08519e-20)
(-3.49721 0.190556 0)
(-3.53081 0.16609 0)
(-3.56026 0.141206 -6.29228e-20)
(-3.58528 0.115941 -6.30888e-20)
(-3.60562 0.0903425 0)
(-3.62098 0.0644718 0)
(-3.63109 0.0383975 0)
(-3.63569 0.0121827 0)
(-3.63456 -0.0141251 -6.16874e-20)
(-3.62753 -0.0404393 6.19672e-20)