/*--------------------------------*- C++ -*----------------------------------*\
  =========                 |
  \\      /  F ield         | OpenFOAM: The Open Source CFD Toolbox
   \\    /   O peration     | Website:  https://openfoam.org
    \\  /    A nd           | Version:  9
     \\/     M anipulation  |
\*---------------------------------------------------------------------------*/
FoamFile
{
    format      ascii;
    class       volScalarField;
    location    "0.12";
    object      epsilon;
}
// * * * * * * * * * * * * * * * * * * * * * * * * * * * * * * * * * * * * * //

dimensions      [0 2 -3 0 0 0 0];

internalField   nonuniform List<scalar> 
12225
(
208.897
125.298
81.5033
61.2148
53.6422
52.1289
52.9212
54.111
54.9303
55.3216
55.5869
56.1684
57.5043
59.9721
64.4332
76.7379
116.841
211.54
60.5979
54.8693
42.6712
34.7225
30.5808
29.0463
29.1328
30.1014
31.547
33.3304
35.4214
37.7588
40.1517
42.2809
44.0843
48.7577
78.3089
283.388
31.2953
33.417
29.5004
25.6565
23.1872
22.1485
22.2342
23.0753
24.4283
26.2132
28.4545
31.1789
34.2795
37.4102
40.3595
46.4079
82.0607
324.92
21.8412
24.1795
22.9258
20.9697
19.4894
18.8461
19.0011
19.7655
20.9845
22.6108
24.6941
27.3241
30.5284
34.1731
38.3646
47.002
88.749
339.836
17.878
19.4377
19.0623
18.0458
17.184
16.8408
17.0734
17.7873
18.8847
20.3392
22.2074
24.6057
27.6583
31.4691
36.5974
47.5377
92.8178
331.063
15.9619
16.7599
16.6187
16.0697
15.5919
15.4642
15.7601
16.4332
17.4236
18.721
20.3825
22.5308
25.3467
29.1205
34.8024
47.2158
92.6448
306.668
14.9669
15.1697
15.0177
14.6867
14.4384
14.454
14.79
15.4224
16.318
17.48
18.9646
20.8923
23.4701
27.1044
32.9889
45.9537
88.9347
273.162
14.4332
14.2033
13.9539
13.7068
13.5851
13.6854
14.0364
14.6242
15.4351
16.4846
17.8294
19.5842
21.9624
25.4213
31.2431
43.9713
82.7926
235.211
14.144
13.6129
13.2468
13.0131
12.9505
13.0898
13.4331
13.9714
14.707
15.667
16.9102
18.5453
20.7793
24.0718
29.6674
41.6053
75.3222
196.546
13.9881
13.2552
12.7819
12.5271
12.4803
12.6248
12.9421
13.4274
14.0972
14.9904
16.1696
17.7383
19.8899
23.0541
28.3563
39.2068
67.5401
160.329
13.9056
13.0422
12.482
12.1924
12.1351
12.2616
12.5401
12.9716
13.5864
14.435
15.5861
17.1395
19.2724
22.3669
27.3871
37.0839
60.3214
129.035
13.8668
12.9289
12.3091
11.9856
11.9057
12.0026
12.2389
12.6231
13.1983
14.0262
15.1828
16.7672
18.9422
22.0407
26.868
35.6081
54.8206
106.221
13.8464
12.8603
12.1962
11.8412
11.7335
11.7955
11.9888
12.3308
12.8768
13.7005
14.8861
16.5366
18.8041
21.9743
26.6945
34.6164
50.3205
87.5137
13.8364
12.818
12.12
11.7349
11.5936
11.6133
11.7599
12.0621
12.5891
13.428
14.6762
16.446
18.8853
22.2357
26.9892
34.3041
47.1213
73.2911
13.8334
12.7954
12.0739
11.6624
11.4854
11.4603
11.5623
11.8337
12.3573
13.2356
14.5848
16.5356
19.2439
22.9216
27.9277
35.0046
45.8505
64.4718
13.8338
12.7844
12.0476
11.6137
11.4022
11.3359
11.4031
11.659
12.1987
13.1408
14.6247
16.8107
19.8797
24.0393
29.5575
36.8691
46.8122
61.085
13.8337
12.7762
12.0281
11.5738
11.3309
11.2323
11.2804
11.5396
12.1123
13.1298
14.7551
17.1825
20.6299
25.3227
31.4853
39.3639
49.2825
61.6874
13.8288
12.7617
12.0006
11.523
11.2501
11.1294
11.174
11.4498
12.0572
13.1308
14.8456
17.4167
21.0845
26.0826
32.6033
40.7758
50.664
62.173
13.8149
12.7325
11.9504
11.4397
11.1325
10.9925
11.0374
11.324
11.9394
13.0071
14.6939
17.2089
20.7863
25.6464
31.9386
39.6982
48.8281
58.9993
13.7971
12.6998
11.8955
11.3504
11.0083
10.8435
10.8711
11.1337
11.6993
12.6697
14.1869
16.4339
19.626
23.986
29.6974
36.8383
45.3153
54.7609
13.7854
12.6851
11.8737
11.3127
10.9534
10.7737
10.7827
11.011
11.5108
12.3641
13.688
15.6357
18.3958
22.185
27.2242
33.6847
41.5961
50.6986
13.7867
12.7068
11.914
11.3625
11.0067
10.825
10.8203
11.0137
11.446
12.1838
13.323
14.9894
17.3429
20.5805
24.9318
30.6297
37.8295
46.4428
13.8191
12.8079
12.0737
11.5599
11.2247
11.0484
11.0315
11.1901
11.5591
12.1948
13.1762
14.6068
16.6192
19.3826
23.1083
28.0395
34.3973
42.239
13.9294
13.0805
12.4565
11.9975
11.68
11.497
11.4527
11.5672
11.8733
12.4198
13.2722
14.5151
16.2572
18.6391
21.8409
26.0822
31.593
38.5091
14.2345
13.7134
13.2437
12.8182
12.4731
12.2327
12.1206
12.1658
12.4009
12.866
13.6128
14.7081
16.2398
18.3221
21.1022
24.7647
29.5187
35.5269
15.02
15.0842
14.7519
14.2485
13.7519
13.3475
13.0933
13.026
13.1725
13.5583
14.216
15.1936
16.5597
18.4066
20.8535
24.0519
28.1838
33.4128
17.0148
18.0012
17.5792
16.6861
15.769
15.0159
14.5049
14.2638
14.2963
14.5994
15.1787
16.0598
17.2938
18.9573
21.1517
24.0054
27.6763
32.3193
22.4229
24.5069
23.0476
20.9554
19.0987
17.6877
16.751
16.2537
16.1386
16.3511
16.8582
17.6606
18.7964
20.3377
22.3826
25.0496
28.4785
32.8103
40.279
40.7079
34.8377
29.5315
25.6372
22.9743
21.3111
20.4239
20.1138
20.229
20.6808
21.4484
22.5744
24.1499
26.2908
29.1169
32.7518
37.3197
135.609
96.9333
71.8376
55.4539
45.0103
38.8308
35.5807
34.1231
33.6721
33.831
34.4963
35.7369
37.7002
40.5467
44.4029
49.3451
55.4376
62.7812
99.5883
175.862
200.649
213.193
216.809
214.221
207.148
197.285
190.489
186.579
185.156
186.427
190.614
196.864
202.194
203.495
200.273
200.899
220.053
249.295
283.103
318.444
353.491
387.143
418.749
447.949
474.563
498.525
519.843
538.567
554.775
568.562
580.03
589.287
596.445
601.615
604.912
606.455
606.365
604.768
601.796
597.588
591.471
583.52
573.833
562.496
549.598
535.231
519.503
502.529
484.441
465.379
445.496
424.951
403.913
382.553
361.044
339.559
318.265
297.327
276.896
257.118
238.121
220.024
202.927
186.917
172.06
158.406
145.986
134.808
124.861
116.115
108.517
101.999
96.4779
91.8598
88.0471
84.9418
82.4499
80.4847
78.9687
77.8344
77.0241
76.489
76.1879
76.0859
76.1525
76.3607
76.6859
77.1047
77.595
78.1343
78.7003
79.2714
79.8327
80.3723
80.8815
81.3554
81.7935
82.1994
82.5728
82.9178
83.2412
83.5479
83.8408
84.1217
84.3907
84.6472
84.889
85.1131
85.3153
85.4906
85.6333
85.7371
85.7953
85.8011
85.7481
85.6298
85.4408
85.1762
84.8323
84.4064
83.8973
83.3051
82.6312
81.8785
81.0509
80.1537
79.193
78.1755
77.1084
75.9991
74.8546
73.6819
72.4868
71.2746
70.0494
68.8141
67.5709
66.323
65.0787
63.857
62.6974
61.6716
60.8333
60.2297
61.8041
61.8878
61.1259
63.0269
65.1296
14.6223
65.6599
65.8787
65.8877
65.8123
15.1025
66.0341
65.9101
66.2284
67.4795
66.6036
15.7833
15.9106
15.9064
16.07
16.0571
15.9972
15.9515
15.9409
15.9384
15.9552
15.9994
16.0409
16.0124
15.8303
15.4282
14.7797
13.9033
12.9166
156.45
195.688
189.504
178.827
170.118
165.51
166.036
173.559
188.728
210.788
240.56
279.531
327.857
381.029
417.926
436.213
437.224
426.476
410.831
394.104
377.826
362.46
348.191
335.119
323.275
312.622
303.078
294.526
286.84
279.891
273.558
267.733
262.319
257.235
252.415
247.807
243.37
239.078
234.916
230.878
226.964
223.225
219.316
215.025
210.332
205.238
199.752
193.886
187.663
181.109
174.255
167.14
159.806
152.299
144.671
136.975
129.265
121.598
114.028
106.611
99.3965
92.4339
85.7668
79.4342
73.469
67.8984
62.7428
58.0156
53.7234
49.866
46.4364
43.4213
40.8016
38.5535
36.6492
35.0581
33.7483
32.6874
31.8436
31.1869
30.6894
30.3261
30.0745
29.9149
29.8303
29.806
29.8294
29.8893
29.9761
30.0814
30.1975
30.3177
30.4361
30.5489
30.6524
30.7473
30.8368
30.9254
31.0193
31.1193
31.222
31.3232
31.421
31.515
31.6053
31.6915
31.7734
31.8506
31.9224
31.9882
32.0473
32.0987
32.1417
32.1753
32.1987
32.2109
32.2109
32.1981
32.1714
32.1302
32.0738
32.0018
31.9139
31.81
31.6904
31.5553
31.4055
31.242
31.0658
30.8783
30.681
30.4752
30.2624
30.044
29.8212
29.595
29.3659
29.1343
28.9004
28.6643
28.4271
28.1928
27.9718
27.7814
27.6224
27.4472
27.3811
27.194
27.0486
26.9274
26.7091
25.3363
26.2134
26.072
26.1215
25.8818
24.374
24.9408
24.5667
24.0011
22.9706
22.6391
20.7984
18.9734
18.1004
16.9034
16.2385
16.0376
16.1496
16.4973
17.0349
17.7002
18.4028
19.0295
19.4432
19.5134
19.1595
18.3833
17.2711
16.141
774.086
331.254
260.925
236.369
225.897
225.998
238.155
261.6
293.056
331.114
373.646
415.623
449.338
466.808
463.499
442.98
412.5
379.305
348.214
321.155
298.314
279.243
263.39
250.243
239.35
230.311
222.776
216.444
211.067
206.443
202.415
198.861
195.687
192.817
190.19
187.754
185.463
183.273
181.146
179.041
176.918
174.717
172.317
169.668
166.749
163.546
160.051
156.261
152.179
147.811
143.173
138.282
133.162
127.843
122.357
116.742
111.038
105.287
99.533
93.8196
88.1905
82.6876
77.3501
72.2143
67.312
62.6704
58.3114
54.2515
50.5014
47.0662
43.9457
41.1345
38.623
36.3979
34.4427
32.7387
31.2657
30.0023
28.9269
28.0181
27.2549
26.6174
26.0871
25.6468
25.2814
24.9772
24.7225
24.5073
24.3232
24.1635
24.0227
23.8969
23.7838
23.6817
23.5904
23.5102
23.4417
23.3854
23.3412
23.3081
23.2844
23.2683
23.2589
23.2554
23.2575
23.2646
23.2763
23.2923
23.3122
23.3356
23.3619
23.3908
23.4217
23.4541
23.4874
23.5208
23.5536
23.585
23.614
23.6396
23.6609
23.6769
23.6868
23.6899
23.6857
23.6736
23.6538
23.6261
23.5909
23.5488
23.5004
23.4464
23.3878
23.3252
23.2596
23.1915
23.1214
23.0494
22.9754
22.8992
22.8202
22.7388
22.6576
22.5803
22.5046
22.4104
22.3034
22.1921
22.0995
21.981
21.8463
21.6781
21.535
21.3422
21.1427
20.8811
20.5337
20.2132
19.8459
19.413
18.905
18.4688
17.9344
17.3691
16.8809
16.3603
15.9949
15.8046
15.7705
15.8799
16.1288
16.4982
16.9481
17.416
17.8104
18.0186
17.9305
17.4802
16.6664
15.6697
818.878
426.362
350.766
322.223
313.287
319.025
333.785
353.688
376.959
400.292
419.589
430.385
429.067
414.608
389.475
358.738
327.495
299.207
275.367
256.043
240.647
228.447
218.78
211.09
204.93
199.936
195.825
192.381
189.446
186.909
184.692
182.741
181.016
179.484
178.113
176.871
175.724
174.636
173.571
172.488
171.348
170.082
168.629
166.952
165.024
162.825
160.337
157.547
154.45
151.043
147.329
143.319
139.027
134.473
129.684
124.688
119.521
114.22
108.826
103.381
97.929
92.5124
87.174
81.954
76.8901
72.0161
67.3614
62.9507
58.8033
54.9328
51.3478
48.0512
45.0413
42.3119
39.8529
37.6511
35.6906
33.9537
32.4212
31.0731
29.8895
28.8507
27.9377
27.133
26.4206
25.7862
25.2176
24.7044
24.238
23.8117
23.4204
23.0604
22.7291
22.4245
22.1457
21.892
21.6626
21.457
21.2741
21.1128
20.9718
20.8497
20.7457
20.6586
20.5878
20.5323
20.4912
20.4633
20.4477
20.4438
20.4507
20.4674
20.4931
20.5267
20.5672
20.6132
20.6637
20.717
20.7718
20.8266
20.8798
20.93
20.9758
21.0161
21.0499
21.0766
21.0957
21.1072
21.1111
21.1079
21.0983
21.083
21.0629
21.0389
21.012
20.9829
20.9521
20.9201
20.8866
20.8515
20.8138
20.7731
20.7293
20.6831
20.633
20.5718
20.4981
20.421
20.3394
20.237
20.115
19.9786
19.8112
19.6183
19.399
19.1494
18.8738
18.5756
18.2605
17.9235
17.5719
17.2279
16.8825
16.5464
16.2333
15.9409
15.7059
15.5383
15.4371
15.3996
15.4183
15.4838
15.5779
15.673
15.7293
15.6922
15.4968
15.0855
14.4263
13.5754
1136.23
557.822
462.333
426.709
411.265
402.933
399.132
398.656
398.867
396.85
390.199
377.503
358.744
335.442
310.206
285.784
264.153
246.203
231.946
220.914
212.484
206.063
201.148
197.336
194.316
191.857
189.796
188.029
186.491
185.148
183.981
182.98
182.135
181.434
180.858
180.386
179.988
179.632
179.283
178.902
178.45
177.862
177.092
176.105
174.87
173.362
171.557
169.436
166.987
164.199
161.069
157.6
153.799
149.68
145.26
140.565
135.623
130.467
125.133
119.663
114.098
108.483
102.863
97.2807
91.7806
86.4031
81.1863
76.164
71.3655
66.8151
62.5314
58.5275
54.8108
51.3835
48.2427
45.3809
42.787
40.4463
38.3419
36.4548
34.765
33.2522
31.8963
30.678
29.5792
28.5838
27.6774
26.8477
26.0846
25.3798
24.7261
24.1187
23.5542
23.0304
22.5453
22.0976
21.6861
21.3099
20.9683
20.6603
20.385
20.1416
19.929
19.7462
19.5918
19.4647
19.3634
19.2865
19.2322
19.1985
19.1838
19.1863
19.2039
19.2349
19.2772
19.3287
19.3875
19.4512
19.5176
19.5846
19.65
19.7118
19.7682
19.8177
19.8592
19.8916
19.9146
19.9281
19.9324
19.928
19.9158
19.897
19.8726
19.844
19.8124
19.7788
19.7442
19.709
19.6735
19.6374
19.6002
19.561
19.5193
19.4748
19.4262
19.3705
19.3058
19.2328
19.1475
19.0432
18.9164
18.7708
18.6034
18.4144
18.2028
17.9696
17.7192
17.4543
17.1802
16.9
16.6202
16.3491
16.0914
15.8535
15.6405
15.4555
15.3054
15.1918
15.1123
15.0609
15.0238
14.9846
14.9259
14.8266
14.6627
14.4065
14.0275
13.4956
12.7928
11.9285
1419.32
692.955
578.691
528.923
490.017
456.782
428.481
404.085
382.093
361.036
339.924
318.459
297.025
276.496
257.884
241.964
229.064
219.078
211.619
206.19
202.297
199.514
197.496
195.983
194.789
193.793
192.926
192.154
191.47
190.88
190.393
190.02
189.765
189.625
189.589
189.639
189.752
189.898
190.043
190.151
190.184
190.079
189.799
189.31
188.578
187.574
186.271
184.647
182.683
180.365
177.685
174.638
171.226
167.456
163.341
158.897
154.147
149.118
143.841
138.35
132.686
126.889
121.003
115.074
109.146
103.266
97.4769
91.8219
86.3391
81.0632
76.0239
71.2455
66.7463
62.5389
58.6297
55.0193
51.7033
48.6726
45.9139
43.4109
41.1451
39.0963
37.2436
35.5662
34.044
32.658
31.3911
30.2277
29.1545
28.1577
27.2289
26.3625
25.5533
24.7972
24.0912
23.4331
22.8215
22.2554
21.7344
21.2583
20.8267
20.4393
20.0957
19.7951
19.5363
19.3179
19.1381
18.995
18.8864
18.8097
18.7623
18.7406
18.7412
18.7608
18.7961
18.8438
18.9007
18.9636
19.0293
19.0947
19.157
19.2135
19.262
19.3007
19.3282
19.3434
19.3461
19.3363
19.3146
19.2818
19.2394
19.1888
19.1318
19.0701
19.0054
18.9391
18.8727
18.807
18.7425
18.6793
18.6169
18.5549
18.4924
18.4287
18.3625
18.2916
18.2138
18.1269
18.0269
17.9103
17.7739
17.6177
17.4469
17.2602
17.0574
16.8396
16.6105
16.3737
16.1334
15.8947
15.6633
15.4457
15.2479
15.0755
14.9325
14.8214
14.7427
14.6951
14.674
14.6703
14.6699
14.6463
14.5789
14.445
14.2215
13.8865
13.421
12.8089
12.0467
11.1361
1638.95
807.033
667.695
595.871
536.013
481.368
432.392
389.848
353.689
323.194
297.418
275.572
257.158
241.92
229.696
220.277
213.35
208.506
205.298
203.298
202.133
201.503
201.179
201.006
200.884
200.761
200.621
200.47
200.33
200.225
200.178
200.21
200.33
200.542
200.84
201.211
201.634
202.085
202.532
202.942
203.267
203.464
203.498
203.334
202.939
202.28
201.33
200.064
198.461
196.504
194.182
191.486
188.416
184.971
181.161
176.994
172.488
167.661
162.538
157.146
151.516
145.683
139.686
133.565
127.365
121.13
114.907
108.741
102.678
96.7608
91.0287
85.5171
80.2563
75.2707
70.5782
66.1904
62.1126
58.344
54.8783
51.7046
48.8079
46.1705
43.7723
41.5922
39.6087
37.8007
36.148
34.6318
33.2296
31.9275
30.7152
29.5833
28.5238
27.5303
26.5979
25.7229
24.9031
24.1372
23.4247
22.7658
22.1608
21.6104
21.115
20.6745
20.2886
19.9562
19.6757
19.4451
19.2616
19.1222
19.0238
18.9626
18.9329
18.9289
18.9456
18.9781
19.0215
19.0715
19.1236
19.1737
19.218
19.2533
19.2769
19.2864
19.2803
19.2577
19.2183
19.1626
19.0915
19.0065
18.9095
18.8026
18.6882
18.5688
18.4465
18.3236
18.2018
18.0825
17.9667
17.8548
17.7465
17.6416
17.5391
17.4382
17.3373
17.2344
17.127
17.0124
16.8873
16.7494
16.5965
16.4269
16.2468
16.0583
15.8609
15.6558
15.4455
15.2334
15.0233
14.8197
14.6281
14.4543
14.3041
14.1828
14.0946
14.0414
14.0233
14.038
14.0801
14.1396
14.201
14.2356
14.2162
14.1183
13.9168
13.5895
13.1189
12.4934
11.7154
10.79
1829.33
875.91
713.268
627.432
553.353
484.344
422.492
370.046
327.704
294.667
269.38
250.221
235.861
225.303
217.801
212.749
209.619
207.936
207.283
207.308
207.729
208.334
208.977
209.564
210.051
210.425
210.7
210.902
211.065
211.225
211.41
211.646
211.949
212.324
212.771
213.28
213.834
214.411
214.983
215.52
215.972
216.31
216.5
216.508
216.3
215.842
215.107
214.068
212.706
211.002
208.944
206.525
203.74
200.59
197.079
193.212
189.002
184.46
179.603
174.45
169.023
163.346
157.449
151.363
145.124
138.771
132.345
125.89
119.454
113.083
106.821
100.715
94.8039
89.125
83.7088
78.58
73.7564
69.2488
65.0611
61.1913
57.6313
54.3687
51.387
48.6668
46.1872
43.9261
41.8612
39.9668
38.2173
36.5976
35.0931
33.6906
32.3787
31.1476
29.9898
28.8995
27.8725
26.9064
26.0002
25.1538
24.3682
23.6445
22.9841
22.3882
21.8575
21.3918
20.9904
20.6516
20.3728
20.1506
19.9811
19.8604
19.7835
19.7414
19.726
19.7302
19.7473
19.7712
19.796
19.8163
19.8274
19.8251
19.8061
19.7678
19.7085
19.6273
19.5243
19.4002
19.2566
19.0957
18.9201
18.7327
18.5369
18.3357
18.1324
17.9297
17.7302
17.5358
17.3479
17.1672
16.9941
16.828
16.6683
16.5138
16.3627
16.213
16.0622
15.9077
15.7469
15.578
15.3997
15.211
15.0143
14.8171
14.6192
14.4216
14.226
14.0351
13.8517
13.6796
13.5232
13.3877
13.2781
13.1995
13.1558
13.1491
13.1798
13.2457
13.3413
13.4563
13.5742
13.6689
13.7061
13.6599
13.5041
13.2151
12.7751
12.173
11.4129
10.5046
1965.4
908.546
727.554
632.189
550.232
474.363
407.317
351.91
308.884
277.055
254.292
238.414
227.627
220.589
216.317
214.074
213.283
213.483
214.307
215.464
216.741
217.985
219.101
220.039
220.785
221.351
221.766
222.069
222.303
222.507
222.718
222.962
223.26
223.622
224.049
224.537
225.069
225.627
226.184
226.711
227.166
227.526
227.759
227.829
227.699
227.335
226.708
225.792
224.566
223.014
221.125
218.895
216.321
213.405
210.152
206.569
202.665
198.449
193.932
189.125
184.042
178.696
173.104
167.285
161.262
155.06
148.712
142.251
135.719
129.158
122.615
116.138
109.774
103.57
97.5686
91.8077
86.3192
81.1283
76.2523
71.7014
67.4783
63.5794
59.9951
56.711
53.7092
50.9688
48.4678
46.1703
44.0558
42.1049
40.2989
38.6208
37.0552
35.5887
34.2102
32.9109
31.684
30.5251
29.4316
28.4027
27.439
26.542
25.7137
24.9564
24.2719
23.6615
23.1255
22.6632
22.2725
21.9503
21.6922
21.493
21.3493
21.2527
21.1906
21.1525
21.1295
21.1133
21.0962
21.0714
21.0331
20.976
20.8961
20.7906
20.6576
20.4963
20.3071
20.0914
19.8514
19.5902
19.3113
19.0188
18.7168
18.4096
18.1014
17.7958
17.4963
17.2054
16.9251
16.6566
16.4004
16.1563
15.9233
15.7002
15.4851
15.2755
15.0692
14.8635
14.6563
14.4464
14.233
14.0161
13.7958
13.5802
13.3733
13.1755
12.9879
12.8124
12.6508
12.5058
12.3806
12.2789
12.2048
12.1624
12.1551
12.185
12.2525
12.3559
12.4899
12.6441
12.8023
12.9405
13.021
13.0173
12.9026
12.6529
12.2501
11.6837
10.9576
10.0861
2048.19
915.28
720.2
619.473
535.124
458.492
391.978
338.194
297.582
268.622
248.902
236.026
228.045
223.513
221.386
220.905
221.506
222.764
224.356
226.043
227.658
229.092
230.283
231.211
231.883
232.328
232.588
232.713
232.751
232.75
232.753
232.791
232.891
233.066
233.322
233.654
234.05
234.49
234.946
235.389
235.789
236.13
236.373
236.477
236.4
236.102
235.549
234.714
233.574
232.115
230.329
228.215
225.775
223.019
219.955
216.597
212.957
209.046
204.875
200.453
195.787
190.883
185.745
180.379
174.793
168.996
163.003
156.833
150.511
144.071
137.55
130.992
124.446
117.962
111.591
105.383
99.3824
93.6296
88.1578
82.9921
78.1496
73.6391
69.4618
65.6121
62.0786
58.8444
55.8867
53.1704
50.6756
48.3808
46.2643
44.3054
42.4849
40.7857
39.1926
37.6932
36.2776
34.9383
33.6705
32.4718
31.3414
30.2806
29.2916
28.3771
27.5401
26.7832
26.1079
25.5147
25.0025
24.5688
24.2092
23.9183
23.6891
23.5205
23.3962
23.3016
23.2241
23.1532
23.0791
22.9934
22.8887
22.7589
22.5994
22.4066
22.1788
21.9154
21.6171
21.286
20.9252
20.5387
20.1313
19.7081
19.2747
18.8366
18.3991
17.9671
17.5449
17.1361
16.7432
16.3681
16.0115
15.6732
15.3523
15.0472
14.7555
14.4747
14.2022
13.9354
13.6723
13.4117
13.1535
12.898
12.6462
12.4019
12.1751
11.9666
11.7774
11.6086
11.4614
11.3369
11.2371
11.1641
11.1202
11.1081
11.1301
11.1875
11.2807
11.4078
11.5639
11.7392
11.9176
12.0774
12.1808
12.2014
12.1127
11.8916
11.5206
10.9902
10.3045
9.48139
2091.35
905.25
700.049
597.379
514.608
441.279
378.807
329.166
292.41
266.862
250.093
239.745
233.899
231.129
230.409
231.001
232.372
234.129
235.989
237.751
239.283
240.507
241.387
241.926
242.15
242.106
241.85
241.446
240.955
240.437
239.946
239.524
239.204
239.007
238.943
239.009
239.192
239.47
239.81
240.176
240.562
240.947
241.282
241.513
241.585
241.446
241.054
240.371
239.371
238.038
236.364
234.353
232.014
229.364
226.424
223.216
219.763
216.086
212.203
208.128
203.867
199.426
194.801
189.99
184.984
179.777
174.365
168.746
162.925
156.917
150.741
144.428
138.019
131.559
125.102
118.7
112.412
106.288
100.379
94.7244
89.3592
84.3078
79.5859
75.2005
71.1507
67.4292
64.0085
60.8662
57.9824
55.3352
52.9012
50.6572
48.581
46.6516
44.8502
43.1604
41.5686
40.064
38.6388
37.2879
36.0087
34.8013
33.6671
32.6089
31.6303
30.7347
29.9249
29.2025
28.5675
28.0181
27.5504
27.159
26.8367
26.5763
26.3741
26.2083
26.0622
25.9219
25.7756
25.613
25.4252
25.2051
24.9473
24.6478
24.3048
23.9178
23.4882
23.0187
22.5134
21.9774
21.4167
20.8379
20.2481
19.6541
19.0629
18.4808
17.9133
17.365
16.8396
16.3394
15.8655
15.4179
14.9954
14.5961
14.2172
13.8556
13.5082
13.172
12.8448
12.5254
12.2136
11.9103
11.6169
11.3358
11.0764
10.8449
10.642
10.4685
10.3248
10.2116
10.1289
10.0773
10.0572
10.069
10.1133
10.19
10.2987
10.4373
10.6008
10.7799
10.9595
11.1196
11.226
11.2518
11.1727
10.9673
10.6197
10.1225
9.48025
8.71368
2107.05
885.517
673.61
571.483
492.739
424.969
368.293
323.892
291.474
269.356
255.266
247.015
242.809
241.298
241.501
242.712
244.426
246.281
248.02
249.471
250.528
251.136
251.286
251.002
250.334
249.35
248.13
246.759
245.321
243.898
242.56
241.369
240.37
239.596
239.061
238.766
238.696
238.824
239.109
239.503
240.021
240.628
241.26
241.839
242.291
242.546
242.539
242.22
241.55
240.503
239.07
237.254
235.07
232.544
229.709
226.604
223.268
219.737
216.046
212.22
208.278
204.231
200.08
195.816
191.427
186.893
182.192
177.303
172.207
166.893
161.358
155.609
149.668
143.566
137.347
131.062
124.771
118.533
112.409
106.456
100.724
95.2568
90.086
85.2351
80.7177
76.5384
72.6746
69.1159
65.8468
62.8472
60.0944
57.5645
55.2329
53.0763
51.0724
49.2014
47.4458
45.7912
44.2263
42.743
41.3361
40.0035
38.7453
37.5635
36.4615
35.4429
34.5114
33.6695
32.9181
32.2563
31.6807
31.1857
30.7635
30.4041
30.1078
29.8566
29.6278
29.404
29.1709
28.9161
28.6296
28.3029
27.9299
27.5064
27.0301
26.501
25.9208
25.2929
24.6223
23.9154
23.1794
22.4225
21.6532
20.8804
20.1126
19.3577
18.623
17.9146
17.2371
16.5939
15.9866
15.4154
14.8789
14.3748
13.8996
13.4495
13.0204
12.6087
12.2115
11.8271
11.4551
11.0961
10.7523
10.4262
10.1231
9.85545
9.62511
9.43305
9.27976
9.1652
9.08865
9.04885
9.04409
9.07239
9.13175
9.22018
9.33567
9.47533
9.63408
9.80297
9.96824
10.1114
10.2042
10.2198
10.1369
9.93673
9.60616
9.14027
8.54457
7.84141
2104.07
860.706
644.885
544.943
471.49
410.23
359.944
321.028
292.926
274.045
262.346
255.863
252.961
252.381
253.192
254.72
256.479
258.123
259.414
260.2
260.393
259.964
258.927
257.336
255.272
252.835
250.141
247.309
244.459
241.702
239.139
236.854
234.913
233.36
232.222
231.499
231.177
231.219
231.575
232.179
233.05
234.133
235.338
236.564
237.71
238.678
239.382
239.745
239.707
239.228
238.284
236.872
235.009
232.724
230.064
227.083
223.838
220.391
216.796
213.102
209.349
205.563
201.759
197.939
194.09
190.19
186.21
182.111
177.855
173.404
168.729
163.807
158.631
153.208
147.56
141.726
135.756
129.709
123.652
117.65
111.768
106.066
100.595
95.3973
90.5024
85.9299
81.6717
77.7301
74.0978
70.7602
67.6976
64.8874
62.3052
59.9261
57.726
55.6821
53.7738
51.983
50.2951
48.6983
47.1847
45.7493
44.39
43.1074
41.9038
40.7826
39.7474
38.8012
37.9456
37.1802
36.5022
35.9061
35.3839
34.9257
34.5206
34.1702
33.8455
33.525
33.1916
32.8313
32.4324
31.9856
31.4839
30.9227
30.2996
29.6146
28.8696
28.0689
27.218
26.3243
25.3965
24.4441
23.4774
22.5068
21.543
20.5959
19.6747
18.7873
17.94
17.1374
16.3819
15.674
15.0126
14.3946
13.8159
13.2715
12.7563
12.2654
11.7948
11.3418
10.9052
10.4854
10.0844
9.70524
9.35151
9.03484
8.76319
8.53782
8.35967
8.22893
8.1446
8.10431
8.1044
8.14028
8.20704
8.29998
8.41494
8.54769
8.69266
8.84131
8.98123
9.09634
9.1639
9.15925
9.0641
8.86327
8.54684
8.11252
7.56703
6.93306
2087.75
833.534
616.028
519.246
451.529
396.903
352.914
319.269
295.218
279.303
269.735
264.779
262.957
263.1
264.322
265.967
267.556
268.75
269.318
269.118
268.082
266.203
263.53
260.154
256.201
251.821
247.179
242.445
237.784
233.35
229.276
225.673
222.627
220.193
218.403
217.26
216.744
216.81
217.395
218.416
219.856
221.636
223.643
225.754
227.847
229.8
231.5
232.845
233.749
234.145
233.988
233.258
231.96
230.122
227.793
225.038
221.935
218.566
215.013
211.354
207.655
203.971
200.34
196.784
193.305
189.892
186.516
183.136
179.7
176.153
172.437
168.501
164.304
159.82
155.04
149.975
144.656
139.129
133.453
127.698
121.935
116.236
110.668
105.291
100.156
95.2976
90.7289
86.4683
82.5202
78.8788
75.5308
72.4576
69.6371
67.0453
64.6575
62.4496
60.3985
58.4835
56.6866
54.9928
53.3909
51.8728
50.434
49.0725
47.7893
46.5864
45.4669
44.4338
43.4887
42.6317
41.86
41.1683
40.5483
39.9891
39.4771
39.0143
38.5818
38.153
37.7081
37.2312
36.7095
36.1327
35.4932
34.7858
34.008
33.1597
32.243
31.2622
30.2236
29.1354
28.0071
26.8494
25.6743
24.4939
23.3209
22.1674
21.0449
19.9635
18.9316
17.9556
17.0392
16.1838
15.3882
14.6492
13.9618
13.3197
12.7163
12.1451
11.6005
11.0782
10.5759
10.0932
9.63137
9.19353
8.78362
8.40867
8.08315
7.81018
7.59153
7.42836
7.32033
7.26489
7.25711
7.29007
7.35575
7.44627
7.55468
7.67487
7.80037
7.92292
8.03157
8.11298
8.14981
8.12039
8.00998
7.80716
7.50534
7.10468
6.6129
6.05184
2060.67
805.34
587.955
494.855
432.822
384.493
346.355
317.543
297.175
283.935
276.272
272.662
271.772
272.512
274.026
275.666
276.946
277.522
277.158
275.719
273.154
269.49
264.816
259.281
253.074
246.415
239.537
232.675
226.048
219.853
214.254
209.378
205.319
202.131
199.838
198.433
197.881
198.126
199.089
200.67
202.783
205.323
208.167
211.183
214.24
217.208
219.961
222.377
224.349
225.784
226.609
226.777
226.268
225.091
223.287
220.917
218.068
214.838
211.333
207.659
203.916
200.189
196.549
193.048
189.715
186.56
183.572
180.717
177.947
175.198
172.397
169.468
166.338
162.944
159.24
155.202
150.825
146.129
141.157
135.965
130.622
125.206
119.792
114.456
109.267
104.273
99.5187
95.0391
90.8537
86.9689
83.3809
80.0782
77.044
74.2577
71.6964
69.3362
67.1533
65.1249
63.2308
61.4533
59.7779
58.1936
56.6929
55.2713
53.9273
52.6615
51.4757
50.372
49.3519
48.4152
47.5594
46.7793
46.0663
45.4093
44.7953
44.2107
43.6609
43.1145
42.5494
41.9482
41.2969
40.5847
39.8033
38.9471
38.0131
37.001
35.9129
34.753
33.528
32.2461
30.9175
29.5538
28.1681
26.7742
25.3864
24.0193
22.6867
21.4016
20.1748
19.015
17.928
16.9164
15.9798
15.1149
14.3157
13.5748
12.8838
12.2341
11.6179
11.0292
10.4636
9.91918
9.3965
8.89804
8.42784
7.99076
7.60123
7.26837
6.99462
6.7828
6.6342
6.5473
6.51704
6.53489
6.59004
6.67117
6.76807
6.87211
6.97554
7.07008
7.14622
7.19344
7.19942
7.14588
7.02166
6.81905
6.53449
6.17012
5.73417
5.24658
2020.33
775.279
559.838
470.888
414.458
372.096
339.409
315.064
298.094
287.322
281.415
279.047
279.013
280.292
282.049
283.628
284.525
284.374
282.931
280.063
275.741
270.033
263.093
255.148
246.479
237.401
228.237
219.295
210.854
203.144
196.344
190.579
185.92
182.396
179.998
178.688
178.403
179.063
180.572
182.819
185.621
188.847
192.375
196.084
199.853
203.563
207.096
210.336
213.172
215.499
217.228
218.284
218.616
218.202
217.05
215.204
212.734
209.741
206.34
202.658
198.821
194.949
191.146
187.501
184.079
180.92
178.043
175.438
173.075
170.897
168.832
166.791
164.68
162.403
159.876
157.032
153.825
150.236
146.272
141.966
137.371
132.554
127.592
122.565
117.555
112.626
107.852
103.289
98.9765
94.9348
91.1733
87.6912
84.48
81.5254
78.8094
76.3109
74.0067
71.874
69.891
68.0383
66.2989
64.6588
63.1077
61.6382
60.2464
58.9305
57.6907
56.5278
55.4425
54.4344
53.5007
52.6363
51.8327
51.0783
50.3588
49.6565
48.9785
48.3038
47.6085
46.8744
46.0868
45.2341
44.3076
43.3013
42.2118
41.0384
39.7826
38.4486
37.0426
35.5729
34.0496
32.4848
30.8921
29.2865
27.6839
26.1009
24.554
23.0588
21.6295
20.2776
19.0118
17.8366
16.753
15.7579
14.8451
14.0057
13.2294
12.5051
11.8227
11.1731
10.5498
9.94888
9.36905
8.8118
8.28069
7.78045
7.32119
6.91924
6.57804
6.30258
6.09675
5.96134
5.89255
5.88158
5.91558
5.97996
6.06092
6.14682
6.22804
6.29593
6.34214
6.3588
6.33804
6.26495
6.13168
5.93378
5.67017
5.34423
4.96416
4.54729
1974.79
748.432
535.799
450.516
398.655
361.049
332.672
311.856
297.578
288.774
284.283
282.93
283.613
285.362
287.35
288.904
289.49
288.715
286.316
282.16
276.24
268.672
259.683
249.592
238.785
227.678
216.688
206.195
196.519
187.906
180.523
174.465
169.759
166.385
164.284
163.372
163.549
164.708
166.737
169.522
172.828
176.497
180.407
184.444
188.499
192.469
196.257
199.77
202.92
205.623
207.797
209.367
210.266
210.442
209.867
208.542
206.502
203.819
200.593
196.95
193.03
188.974
184.917
180.981
177.267
173.855
170.799
168.125
165.833
163.893
162.248
160.816
159.495
158.173
156.735
155.074
153.102
150.755
147.994
144.813
141.241
137.317
133.104
128.675
124.111
119.496
114.921
110.462
106.182
102.117
98.2922
94.7191
91.4005
88.3313
85.5022
82.898
80.4983
78.2813
76.2257
74.312
72.5216
70.8386
69.2498
67.7455
66.3193
64.9671
63.687
62.4782
61.3405
60.2728
59.2722
58.3335
57.4484
56.6056
55.791
54.9883
54.1835
53.3835
52.5622
51.7004
50.7833
49.7989
48.7381
47.5942
46.3635
45.0446
43.6386
42.1488
40.581
38.9429
37.2441
35.4965
33.7137
31.9111
30.1059
28.3161
26.5607
24.8583
23.2265
21.6804
20.2322
18.8897
17.6558
16.5289
15.5026
14.5672
13.7103
12.9182
12.1778
11.4769
10.8058
10.1577
9.52929
8.92011
8.33266
7.77149
7.24292
6.76732
6.3501
5.99887
5.72085
5.5203
5.39633
5.34151
5.34234
5.38169
5.4422
5.50876
5.56929
5.61417
5.6357
5.62805
5.58704
5.50057
5.36376
5.17477
4.93429
4.64635
4.31858
3.96557
1923.76
724.617
515.506
433.451
385.268
351.389
326.357
308.275
296.083
288.811
285.43
284.886
286.161
288.321
290.544
292.135
292.529
291.299
288.159
282.971
275.749
266.656
255.994
244.176
231.693
219.066
206.795
195.322
184.993
176.052
168.635
162.79
158.49
155.657
154.18
153.929
154.765
156.551
159.15
162.434
166.18
170.22
174.423
178.666
182.835
186.822
190.536
193.902
196.86
199.363
201.371
202.844
203.74
204.016
203.628
202.548
200.768
198.314
195.248
191.666
187.693
183.472
179.152
174.876
170.774
166.958
163.518
160.518
157.994
155.95
154.36
153.164
152.273
151.573
150.933
150.221
149.319
148.12
146.543
144.539
142.088
139.199
135.91
132.276
128.369
124.281
120.115
115.959
111.885
107.949
104.189
100.635
97.3001
94.1889
91.3054
88.6448
86.1889
83.9187
81.8147
79.8598
78.0355
76.3241
74.7108
73.184
71.7355
70.359
69.0504
67.8076
66.629
65.5131
64.4566
63.4543
62.4984
61.5783
60.6801