/*--------------------------------*- C++ -*----------------------------------*\
  =========                 |
  \\      /  F ield         | OpenFOAM: The Open Source CFD Toolbox
   \\    /   O peration     | Website:  https://openfoam.org
    \\  /    A nd           | Version:  9
     \\/     M anipulation  |
\*---------------------------------------------------------------------------*/
FoamFile
{
    format      ascii;
    class       volScalarField;
    location    "0.12";
    object      k;
}
// * * * * * * * * * * * * * * * * * * * * * * * * * * * * * * * * * * * * * //

dimensions      [0 2 -2 0 0 0 0];

internalField   nonuniform List<scalar> 
12225
(
0.265447
0.159152
0.103249
0.0770549
0.0670297
0.0648206
0.0656668
0.0671072
0.0680935
0.0684741
0.0685879
0.0689905
0.070263
0.0729307
0.0781282
0.0933328
0.142747
0.261396
0.331667
0.247156
0.196004
0.1696
0.158391
0.155962
0.157839
0.160985
0.163725
0.165581
0.166844
0.16816
0.170217
0.173681
0.180356
0.197294
0.260366
0.515854
0.344335
0.284639
0.240663
0.214173
0.201536
0.198285
0.200207
0.204014
0.207695
0.210547
0.212841
0.215415
0.219242
0.225134
0.234814
0.256588
0.333285
0.65435
0.349946
0.305159
0.268303
0.243871
0.231286
0.227728
0.229643
0.233871
0.238287
0.241992
0.245106
0.248449
0.253214
0.260717
0.273442
0.301405
0.390148
0.735762
0.353468
0.317919
0.287082
0.265548
0.254018
0.25075
0.252843
0.257441
0.262475
0.266945
0.270814
0.274784
0.280137
0.288729
0.304151
0.337645
0.435493
0.773908
0.355857
0.326512
0.300597
0.282091
0.27212
0.269546
0.271985
0.276939
0.282509
0.287689
0.292326
0.296976
0.302902
0.312344
0.329834
0.367231
0.467275
0.782487
0.357574
0.332631
0.310701
0.295048
0.286816
0.285143
0.288021
0.293306
0.299342
0.305198
0.310657
0.316141
0.322819
0.333084
0.351946
0.39119
0.487961
0.77191
0.358855
0.337148
0.318439
0.305346
0.298835
0.298116
0.301442
0.30701
0.313449
0.319961
0.326318
0.33283
0.340529
0.351738
0.371429
0.410653
0.500643
0.748943
0.359829
0.340549
0.324439
0.313572
0.308646
0.308823
0.312541
0.318321
0.325101
0.33226
0.339597
0.347339
0.356358
0.368739
0.389
0.426916
0.508048
0.718454
0.360579
0.34313
0.329103
0.32012
0.316572
0.317511
0.32152
0.32743
0.334494
0.342294
0.350689
0.359849
0.370481
0.384333
0.405222
0.441294
0.512764
0.685275
0.361157
0.345081
0.3327
0.325263
0.322846
0.32437
0.328545
0.334498
0.341795
0.350237
0.359756
0.370493
0.382999
0.39866
0.420505
0.454931
0.517229
0.65476
0.361566
0.346417
0.335198
0.328879
0.327257
0.329135
0.333342
0.339268
0.346747
0.355771
0.36636
0.378648
0.393067
0.410699
0.433877
0.467484
0.52284
0.633425
0.361888
0.347436
0.337119
0.331676
0.330637
0.332709
0.336852
0.342705
0.35035
0.35995
0.371624
0.385527
0.402026
0.421963
0.447081
0.480914
0.531275
0.619835
0.362167
0.348261
0.338675
0.333935
0.333306
0.335424
0.339405
0.345151
0.352977
0.363218
0.376096
0.391817
0.410724
0.433489
0.46137
0.496729
0.544404
0.616697
0.362387
0.348853
0.339778
0.335501
0.335049
0.337035
0.34077
0.346407
0.35446
0.365398
0.379546
0.397196
0.418739
0.444788
0.476299
0.514777
0.562823
0.626176
0.362534
0.349189
0.34038
0.336285
0.335753
0.337451
0.340919
0.346521
0.35489
0.366571
0.381978
0.401515
0.425687
0.45517
0.490836
0.53372
0.58499
0.646308
0.362584
0.349252
0.340469
0.336276
0.335436
0.336772
0.340059
0.345789
0.354611
0.367069
0.383628
0.404792
0.431188
0.463579
0.502844
0.549834
0.605039
0.668063
0.3625
0.349003
0.340012
0.335445
0.334111
0.33508
0.338328
0.344361
0.353734
0.36691
0.384344
0.406562
0.434181
0.467875
0.508336
0.556132
0.611463
0.673383
0.36222
0.348342
0.338839
0.333526
0.331403
0.331859
0.335005
0.341258
0.351
0.364558
0.382302
0.40467
0.432122
0.465063
0.50374
0.548186
0.598128
0.652363
0.361811
0.347383
0.337076
0.330621
0.327259
0.326655
0.329015
0.334686
0.343935
0.356983
0.374093
0.395587
0.421805
0.453054
0.489534
0.531233
0.577764
0.627883
0.361408
0.346379
0.335154
0.327424
0.322642
0.320671
0.321775
0.326272
0.334372
0.346237
0.362056
0.382063
0.406534
0.435782
0.470149
0.509908
0.555003
0.604502
0.36097
0.345161
0.332756
0.323461
0.316946
0.313252
0.312699
0.315586
0.32207
0.332271
0.346337
0.364457
0.386871
0.41391
0.446021
0.483715
0.527318
0.576392
0.360446
0.343523
0.329524
0.318271
0.309685
0.303988
0.301548
0.302617
0.307273
0.315584
0.327669
0.3437
0.36391
0.388623
0.418291
0.453494
0.494769
0.542111
0.359746
0.341144
0.32495
0.311239
0.300221
0.292303
0.287908
0.287152
0.28999
0.296394
0.306444
0.32032
0.338273
0.36061
0.387716
0.420088
0.458271
0.502499
0.358736
0.337557
0.318335
0.301568
0.28777
0.277546
0.27126
0.268844
0.270043
0.274675
0.282756
0.294484
0.310149
0.330049
0.354473
0.383763
0.418349
0.458541
0.357235
0.332036
0.308641
0.288153
0.271336
0.258895
0.250975
0.247224
0.247096
0.250194
0.256448
0.266071
0.279406
0.296757
0.318327
0.3443
0.374958
0.41059
0.354968
0.323269
0.294103
0.269263
0.249524
0.235259
0.226221
0.221626
0.220565
0.222419
0.227024
0.234604
0.245548
0.260181
0.278663
0.301059
0.327521
0.358273
0.351404
0.308462
0.271345
0.241972
0.219997
0.204866
0.195573
0.190764
0.189193
0.190081
0.193211
0.198807
0.207276
0.218968
0.234046
0.252533
0.274493
0.300078
0.342615
0.279004
0.232434
0.19997
0.177852
0.163604
0.155167
0.150751
0.149003
0.149142
0.150945
0.154587
0.160435
0.168847
0.180041
0.194089
0.211052
0.231055
0.299398
0.214042
0.158732
0.122585
0.099349
0.0853395
0.0777369
0.074145
0.0728594
0.0729706
0.0741981
0.0766481
0.0806119
0.0864198
0.0943392
0.104538
0.117158
0.132395
0.351299
0.396803
0.432294
0.449312
0.453544
0.449017
0.438062
0.422915
0.412143
0.405346
0.402161
0.403045
0.408419
0.41716
0.424921
0.42717
0.42279
0.422183
0.446697
0.484502
0.526869
0.569553
0.610414
0.648417
0.683124
0.714412
0.742328
0.767002
0.788601
0.807308
0.823303
0.836762
0.847848
0.856716
0.863507
0.868354
0.871385
0.87272
0.872476
0.870775
0.867743
0.863522
0.857691
0.850074
0.840745
0.829762
0.817178
0.803048
0.787434
0.770403
0.752037
0.732426
0.711672
0.689889
0.667199
0.643736
0.619644
0.595071
0.570175
0.545117
0.520064
0.495184
0.470645
0.446618
0.423269
0.400763
0.379256
0.358895
0.339816
0.322133
0.305937
0.291291
0.27822
0.266715
0.25673
0.248188
0.240982
0.234992
0.230088
0.226139
0.223022
0.220623
0.21884
0.217584
0.216779
0.216357
0.216258
0.216429
0.21682
0.217386
0.218082
0.218867
0.219699
0.220545
0.221373
0.222162
0.222898
0.223575
0.224195
0.224757
0.225267
0.225734
0.226172
0.226589
0.22699
0.227376
0.227747
0.228102
0.228435
0.228741
0.229011
0.229235
0.229403
0.229502
0.229521
0.229447
0.229267
0.228971
0.228547
0.227988
0.227286
0.226435
0.225433
0.224279
0.222975
0.221524
0.219934
0.218211
0.216366
0.21441
0.212354
0.21021
0.20799
0.205706
0.203367
0.200983
0.198561
0.196104
0.193618
0.191108
0.188589
0.186092
0.183679
0.181454
0.179504
0.178028
0.179823
0.179219
0.177283
0.180009
0.183478
0.18599
0.187118
0.187379
0.184889
0.184504
0.186351
0.186463
0.185937
0.18593
0.187332
0.184367
0.18671
0.188456
0.187651
0.18814
0.187166
0.185605
0.184154
0.183104
0.182236
0.181611
0.181301
0.181005
0.180012
0.177406
0.172429
0.164764
0.154601
0.143202
0.541777
0.682599
0.770105
0.813022
0.833044
0.844771
0.857664
0.880356
0.906923
0.940937
0.988544
1.05466
1.13829
1.22784
1.28831
1.31406
1.30854
1.28326
1.25253
1.22518
1.20431
1.19019
1.18244
1.18055
1.18389
1.19169
1.20311
1.21723
1.23319
1.25015
1.26742
1.2844
1.3006
1.31566
1.32928
1.34127
1.35145
1.35971
1.36597
1.37016
1.37222
1.37189
1.36912
1.36408
1.3567
1.34691
1.33465
1.31989
1.30259
1.28278
1.26047
1.23573
1.20865
1.17933
1.14792
1.11458
1.07951
1.04292
1.00504
0.966111
0.926399
0.886166
0.845683
0.80522
0.765047
0.725425
0.686614
0.648859
0.612401
0.577465
0.544266
0.513
0.483842
0.456939
0.432399
0.410287
0.390614
0.373337
0.358362
0.345545
0.334711
0.325663
0.318194
0.312099
0.307187
0.303282
0.300227
0.297885
0.29614
0.294891
0.294055
0.293561
0.293349
0.293367
0.293574
0.293935
0.29442
0.295005
0.295671
0.296415
0.29725
0.298195
0.299266
0.300473
0.301821
0.303313
0.30495
0.306729
0.308644
0.310688
0.312848
0.31511
0.317457
0.319869
0.322324
0.3248
0.327273
0.329717
0.332109
0.334426
0.336646
0.338749
0.340719
0.342542
0.34421
0.345717
0.347061
0.348243
0.349271
0.350151
0.350896
0.351517
0.352028
0.352442
0.352769
0.35302
0.353201
0.353314
0.353357
0.353325
0.353204
0.352977
0.352627
0.352148
0.351511
0.350602
0.349381
0.347742
0.345869
0.34344
0.340513
0.338816
0.333315
0.329053
0.324837
0.319327
0.314208
0.306021
0.298728
0.291186
0.283114
0.275717
0.268078
0.260093
0.253088
0.246859
0.241197
0.23604
0.232047
0.229318
0.22761
0.226687
0.226304
0.225976
0.224862
0.221993
0.21661
0.208464
0.197895
0.187044
0.592858
0.86715
1.03109
1.11036
1.1534
1.18678
1.2285
1.27887
1.33314
1.39487
1.46443
1.53497
1.59279
1.62289
1.6169
1.58094
1.52914
1.47648
1.43354
1.40477
1.39024
1.38806
1.39581
1.41109
1.43167
1.45556
1.48108
1.50692
1.53208
1.55592
1.57805
1.5983
1.61661
1.63304
1.64764
1.66046
1.67156
1.68094
1.68857
1.69442
1.69841
1.70025
1.6999
1.69725
1.69215
1.68444
1.674
1.66072
1.6445
1.62529
1.60307
1.57785
1.54969
1.51867
1.48491
1.44858
1.40987
1.36901
1.32625
1.28187
1.23619
1.1895
1.14214
1.09444
1.04673
0.999327
0.952543
0.906675
0.862
0.818772
0.777221
0.737553
0.699945
0.664549
0.631487
0.600852
0.572703
0.547063
0.523919
0.503214
0.484854
0.468708
0.454614
0.442389
0.431838
0.422766
0.41498
0.408304
0.402576
0.397655
0.393417
0.389759
0.386595
0.383859
0.381496
0.379468
0.377751
0.376327
0.375192
0.374348
0.373801
0.373558
0.373623
0.373995
0.374676
0.375664
0.376948
0.378517
0.380353
0.382437
0.384747
0.387258
0.389943
0.392771
0.395713
0.398734
0.4018
0.404875
0.407927
0.41092
0.413823
0.416608
0.41925
0.421727
0.424023
0.426129
0.428038
0.429751
0.431272
0.432611
0.433779
0.434794
0.43567
0.436424
0.437071
0.437625
0.438094
0.438481
0.438786
0.438997
0.439096
0.439057
0.438856
0.438469
0.437853
0.436908
0.435545
0.433756
0.431512
0.428578
0.425048
0.421198
0.416206
0.410715
0.404518
0.397524
0.389926
0.381325
0.372267
0.36265
0.352574
0.342325
0.331885
0.321402
0.311147
0.30113
0.291655
0.282616
0.273974
0.266291
0.259555
0.25372
0.248737
0.244404
0.240233
0.235482
0.22934
0.221244
0.211002
0.199854
0.654821
1.17585
1.37846
1.47026
1.51817
1.55482
1.58592
1.61367
1.64315
1.67335
1.69956
1.71468
1.71193
1.6889
1.65
1.60517
1.56503
1.53702
1.52417
1.52583
1.53936
1.56155
1.58935
1.62018
1.652
1.68331
1.71308
1.74071
1.76593
1.78873
1.80929
1.82783
1.84465
1.85997
1.874
1.88686
1.8986
1.9092
1.9186
1.92667
1.93326
1.93802
1.94082
1.94146
1.93971
1.93538
1.92825
1.91817
1.90499
1.88858
1.86889
1.84586
1.81951
1.78986
1.75702
1.72111
1.68231
1.64081
1.59688
1.55078
1.50283
1.45335
1.40269
1.35122
1.29929
1.24726
1.19549
1.14431
1.09405
1.045
0.997421
0.951559
0.907619
0.865778
0.826177
0.788929
0.754114
0.721777
0.691931
0.664556
0.639596
0.616962
0.596534
0.578166
0.561692
0.546935
0.533712
0.521844
0.511165
0.501523
0.492783
0.48484
0.477596
0.470975
0.46493
0.459426
0.454444
0.449975
0.446021
0.442587
0.43968
0.437307
0.435471
0.434171
0.433399
0.433141
0.433387
0.43412
0.435308
0.436908
0.438877
0.441173
0.44375
0.446565
0.44957
0.452718
0.455961
0.459249
0.462537
0.465778
0.468931
0.471955
0.474818
0.477491
0.479953
0.48219
0.484193
0.485962
0.487502
0.488825
0.489946
0.490885
0.491663
0.4923
0.492818
0.493234
0.49356
0.493804
0.493963
0.494029
0.49398
0.493789
0.493424
0.492855
0.492034
0.490882
0.489316
0.487286
0.484687
0.481371
0.477279
0.472594
0.467142
0.46097
0.454021
0.446298
0.43787
0.428731
0.419006
0.408764
0.398119
0.387197
0.376118
0.365009
0.353983
0.343104
0.332452
0.321985
0.311589
0.301209
0.291178
0.281451
0.27202
0.26287
0.25389
0.24482
0.235263
0.224817
0.213157
0.200747
0.813764
1.48576
1.73911
1.84421
1.88295
1.87915
1.8555
1.82829
1.80314
1.77981
1.75576
1.72865
1.69808
1.66654
1.63879
1.61994
1.61337
1.61989
1.63805
1.66518
1.69826
1.73449
1.7716
1.80785
1.84207
1.87355
1.90198
1.92738
1.95001
1.97024
1.98852
2.00527
2.02085
2.03557
2.0496
2.06306
2.07594
2.08819
2.09967
2.11021
2.11958
2.12746
2.13365
2.13791
2.13997
2.13958
2.1365
2.13051
2.12141
2.10903
2.09325
2.07396
2.05113
2.02475
1.99484
1.9615
1.92484
1.88504
1.84231
1.7969
1.74908
1.69918
1.64754
1.59451
1.54045
1.48577
1.43081
1.37597
1.3216
1.26803
1.21558
1.16454
1.11516
1.06766
1.02223
0.979023
0.938153
0.899701
0.86371
0.83019
0.799116
0.770428
0.744036
0.719819
0.697635
0.677322
0.658708
0.641615
0.625874
0.611327
0.597806
0.585181
0.573375
0.562332
0.552005
0.542366
0.533405
0.525127
0.51755
0.510696
0.504592
0.499259
0.494713
0.490961
0.487998
0.485811
0.484375
0.483655
0.483626
0.48425
0.485446
0.487138
0.489256
0.49173
0.49449
0.497468
0.500596
0.503808
0.507041
0.510232
0.513328
0.516276
0.519034
0.521567
0.523848
0.525859
0.527591
0.529044
0.530226
0.531152
0.531843
0.532324
0.532623
0.532768
0.532786
0.5327
0.532528
0.532282
0.531963
0.531565
0.531068
0.530445
0.529663
0.528686
0.527464
0.525925
0.52399
0.52157
0.51855
0.51482
0.510264
0.505003
0.499073
0.492431
0.48505
0.476937
0.468151
0.458748
0.448808
0.438427
0.427716
0.416794
0.40578
0.394787
0.383904
0.373171
0.36259
0.352115
0.341628
0.330892
0.319892
0.308672
0.297142
0.285256
0.272993
0.260319
0.247167
0.233438
0.219035
0.20416
0.942434
1.77972
2.08468
2.19242
2.18665
2.12359
2.03838
1.95185
1.87451
1.80994
1.75829
1.71882
1.69124
1.67593
1.67331
1.6832
1.70434
1.73456
1.77119
1.81154
1.85321
1.89425
1.93322
1.96917
2.00162
2.03044
2.05582
2.07813
2.09789
2.11564
2.13191
2.14718
2.16182
2.17611
2.19021
2.20419
2.21804
2.23165
2.24488
2.25751
2.26929
2.27993
2.28921
2.29686
2.3026
2.30614
2.3072
2.30552
2.30087
2.29304
2.28185
2.26716
2.24887
2.22691
2.20128
2.17198
2.1391
2.10275
2.06308
2.02029
1.97462
1.92633
1.87575
1.82319
1.769
1.71357
1.65726
1.60047
1.54357
1.48694
1.43092
1.37587
1.32207
1.26982
1.21935
1.17087
1.12455
1.08052
1.03888
0.999668
0.962908
0.928577
0.896616
0.866935
0.839412
0.813903
0.790241
0.768252
0.747748
0.728477
0.710299
0.693118
0.676838
0.661382
0.646696
0.632752
0.619548
0.607104
0.595456
0.584656
0.574756
0.565811
0.557865
0.550949
0.545081
0.54026
0.536468
0.53367
0.531816
0.530857
0.530754
0.53138
0.532623
0.534374
0.536534
0.539004
0.54169
0.544503
0.547357
0.550172
0.552876
0.555404
0.557705
0.559732
0.561456
0.562856
0.563923
0.564658
0.565076
0.565196
0.565046
0.56466
0.564074
0.563325
0.562448
0.561474
0.56043
0.559333
0.558189
0.556996
0.555738
0.55439
0.552918
0.551283
0.549429
0.547289
0.544779
0.541799
0.538242
0.534014
0.529013
0.52323
0.516845
0.509822
0.502142
0.493818
0.4849
0.475456
0.465561
0.455318
0.444834
0.434227
0.423614
0.413098
0.402757
0.392617
0.38266
0.372827
0.362993
0.352937
0.342338
0.331172
0.31929
0.306581
0.292984
0.278499
0.263175
0.247082
0.230345
0.213179
1.03608
2.01242
2.34317
2.43453
2.39618
2.28969
2.15764
2.02848
1.9186
1.83467
1.77713
1.7435
1.73047
1.73473
1.75308
1.78241
1.81966
1.86193
1.90663
1.95156
1.99495
2.03555
2.07254
2.10554
2.1345
2.15967
2.18149
2.20053
2.21739
2.23268
2.24694
2.26064
2.27414
2.28768
2.30141
2.31539
2.32959
2.34389
2.35815
2.37215
2.38557
2.39825
2.40996
2.42041
2.42929
2.43631
2.44116
2.44356
2.44325
2.43998
2.43354
2.42375
2.41047
2.39359
2.37303
2.34877
2.32082
2.28923
2.2541
2.21555
2.17378
2.12897
2.0814
2.03132
1.97905
1.92493
1.86931
1.81255
1.75503
1.69714
1.63926
1.58174
1.52496
1.46923
1.41486
1.36211
1.31123
1.2624
1.21579
1.1715
1.12961
1.09014
1.05308
1.01839
0.985969
0.955699
0.927429
0.900986
0.876054
0.852458
0.830067
0.808745
0.788367
0.768833
0.75007
0.732039
0.714732
0.698174
0.682414
0.667524
0.653589
0.640695
0.628928
0.618357
0.609036
0.600996
0.594242
0.588754
0.584491
0.581386
0.579371
0.578397
0.578288
0.578883
0.580038
0.581616
0.58349
0.58554
0.587653
0.589726
0.591666
0.593395
0.594845
0.595966
0.59672
0.597084
0.597053
0.596632
0.595839
0.594705
0.593266
0.591567
0.589654
0.587576
0.585379
0.583104
0.580788
0.578454
0.576117
0.573779
0.571429
0.569045
0.566592
0.564026
0.561292
0.558316
0.555016
0.551292
0.547048
0.5422
0.53667
0.530381
0.5235
0.516101
0.508166
0.49971
0.490778
0.481434
0.471752
0.461827
0.451762
0.441668
0.431654
0.421815
0.412217
0.40288
0.393778
0.384842
0.375942
0.366852
0.357232
0.3468
0.335399
0.322864
0.309095
0.294069
0.277855
0.260582
0.242498
0.223895
1.11293
2.13941
2.48532
2.57521
2.52166
2.39212
2.23581
2.08706
1.96597
1.88023
1.82896
1.80712
1.80855
1.82744
1.85879
1.89843
1.9429
1.98941
2.03569
2.08004
2.12123
2.15848
2.19143
2.22004
2.24457
2.26545
2.28328
2.29869
2.31232
2.32477
2.3366
2.34822
2.35998
2.37212
2.38476
2.39796
2.41168
2.42582
2.44021
2.45467
2.4689
2.4828
2.49614
2.50863
2.51995
2.5298
2.53785
2.54382
2.54742
2.54838
2.54648
2.54151
2.53328
2.52166
2.50654
2.48783
2.46551
2.43957
2.41004
2.377
2.34054
2.30082
2.25801
2.21231
2.16396
2.11324
2.06044
2.00588
1.9499
1.89287
1.83515
1.77713
1.71917
1.66165
1.60492
1.5493
1.4951
1.44259
1.39199
1.34349
1.29723
1.2533
1.21177
1.17263
1.13584
1.10131
1.06892
1.03843
1.00955
0.982155
0.956066
0.93112
0.907162
0.88406
0.861713
0.840057
0.819066
0.798753
0.779168
0.760393
0.742529
0.725696
0.710015
0.695599
0.682547
0.670933
0.660801
0.652163
0.644998
0.639252
0.634843
0.631697
0.629735
0.628719
0.628446
0.628729
0.6294
0.630301
0.631288
0.632229
0.633009
0.633531
0.633713
0.633494
0.632834
0.631708
0.630113
0.628061
0.62558
0.622708
0.619497
0.616004
0.612289
0.608415
0.604442
0.600425
0.596409
0.592432
0.588514
0.584666
0.58088
0.577136
0.5734
0.569625
0.565751
0.561702
0.557393
0.552731
0.547627
0.542008
0.535807
0.528963
0.52151
0.513669
0.505444
0.496854
0.48794
0.478759
0.469378
0.459879
0.450355
0.440902
0.431614
0.42257
0.413822
0.405381
0.397212
0.389238
0.381321
0.373235
0.36465
0.355155
0.344507
0.332526
0.319091
0.304161
0.287801
0.270162
0.25154
0.232309
1.16774
2.19112
2.54461
2.63711
2.58202
2.4489
2.28989
2.14173
2.02553
1.94847
1.90821
1.89801
1.91023
1.93802
1.97585
2.0194
2.06536
2.11121
2.1551
2.19571
2.23224
2.26426
2.29171
2.3148
2.33396
2.34975
2.36282
2.37386
2.3835
2.39235
2.40093
2.40965
2.41883
2.42871
2.4394
2.45096
2.46335
2.47646
2.49015
2.50422
2.51849
2.53287
2.54714
2.561
2.57412
2.58619
2.59687
2.60587
2.61288
2.61763
2.61988
2.61941
2.616
2.60952
2.59981
2.58678
2.57036
2.5505
2.52718
2.50043
2.4703
2.43684
2.40018
2.36043
2.31776
2.27235
2.22442
2.17421
2.12199
2.06807
2.01277
1.95644
1.89945
1.84218
1.78499
1.72827
1.67237
1.61763
1.56435
1.5128
1.46321
1.41575
1.37054
1.32767
1.28716
1.24896
1.21301
1.17896
1.14669
1.11603
1.08679
1.05879
1.03183
1.00575
0.980423
0.955741
0.93165
0.908141
0.885248
0.863046
0.841643
0.821177
0.801795
0.78365
0.766886
0.751622
0.737951
0.725927
0.715563
0.706829
0.699657
0.693943
0.689638
0.686578
0.684471
0.68307
0.682156
0.681528
0.681005
0.680424
0.679643
0.678544
0.67703
0.67503
0.672499
0.669412
0.66577
0.661593
0.65692
0.651804
0.646312
0.640517
0.634499
0.628336
0.622107
0.615882
0.609722
0.603676
0.597776
0.592041
0.586468
0.581039
0.575721
0.570461
0.565193
0.559839
0.554311
0.548518
0.542375
0.535816
0.528785
0.521243
0.513157
0.504737
0.496114
0.487308
0.478358
0.469316
0.46024
0.4512
0.442268
0.433519
0.425023
0.416837
0.408987
0.401467
0.394231
0.387189
0.380194
0.373016
0.36533
0.356716
0.346811
0.335444
0.322491
0.307912
0.291773
0.274237
0.255616
0.236349
1.20073
2.19147
2.54541
2.64388
2.59827
2.47691
2.33141
2.19783
2.09629
2.03291
2.00454
2.00393
2.02318
2.05543
2.09525
2.13856
2.18235
2.22444
2.26334
2.29807
2.32813
2.35337
2.37395
2.39025
2.40282
2.41233
2.41945
2.42491
2.42936
2.43341
2.43756
2.44224
2.44777
2.45437
2.46218
2.47123
2.4815
2.49288
2.50522
2.5183
2.53208
2.54651
2.56131
2.57619
2.59079
2.60477
2.61779
2.62951
2.63962
2.64785
2.65393
2.65764
2.65877
2.65715
2.65265
2.64515
2.63455
2.62081
2.60388
2.58375
2.56041
2.53391
2.50427
2.47157
2.43588
2.39731
2.35597
2.31201
2.2656
2.21697
2.16635
2.11402
2.06029
2.00552
1.95006
1.89431
1.83865
1.78348
1.72917
1.67605
1.62444
1.57461
1.52678
1.48109
1.43765
1.39651
1.35759
1.32063
1.28556
1.25221
1.2204
1.18993
1.16057
1.13215
1.10448
1.07743
1.05092
1.02488
0.999337
0.974338
0.949986
0.926417
0.903797
0.882304
0.862117
0.8434
0.826294
0.810898
0.797267
0.785408
0.775275
0.76678
0.759786
0.754305
0.75001
0.746582
0.74374
0.741237
0.73885
0.736382
0.733663
0.730549
0.726931
0.722724
0.717878
0.712371
0.706207
0.699417
0.692053
0.684185
0.675897
0.667286
0.65845
0.649493
0.640512
0.6316
0.622836
0.614285
0.605994
0.597992
0.590282
0.582849
0.575658
0.568652
0.561758
0.554889
0.547952
0.540852
0.533505
0.525843
0.51782
0.509407
0.500588
0.491436
0.482245
0.473064
0.463938
0.45492
0.446063
0.437421
0.429047
0.420992
0.413292
0.405969
0.399016
0.392398
0.386047
0.379855
0.373666
0.367244
0.360274
0.352357
0.343059
0.332221
0.319737
0.305584
0.289837
0.272675
0.254413
0.235538
1.21796
2.15913
2.50944
2.61673
2.5882
2.48867
2.36664
2.2555
2.17332
2.12525
2.10805
2.11485
2.13828
2.17197
2.2109
2.25136
2.29067
2.32697
2.35906
2.38625
2.40828
2.42521
2.43739
2.44533
2.44969
2.45123
2.4507
2.44885
2.4464
2.44396
2.44211
2.44127
2.4418
2.44395
2.44785
2.45357
2.46105
2.47018
2.4808
2.49265
2.50586
2.52034
2.53578
2.55184
2.5681
2.58419
2.5997
2.61429
2.62761
2.63935
2.64925
2.65708
2.66262
2.66571
2.66621
2.66401
2.65903
2.6512
2.6405
2.62691
2.61041
2.59101
2.56873
2.54358
2.5156
2.48481
2.45125
2.41497
2.37604
2.33456
2.29065
2.2445
2.19631
2.14635
2.09494
2.04242
1.9892
1.93566
1.88223
1.82932
1.77731
1.72655
1.67736
1.62999
1.58464
1.54145
1.5003
1.46114
1.42393
1.38852
1.35475
1.32241
1.29128
1.26113
1.23178
1.20304
1.1748
1.14695
1.11948
1.09241
1.06582
1.03982
1.0146
0.990335
0.967231
0.945487
0.925283
0.906762
0.890025
0.875116
0.862022
0.850674
0.840956
0.832733
0.825969
0.820237
0.815188
0.810521
0.80597
0.801302
0.796317
0.790849
0.784769
0.777981
0.770431
0.762094
0.752983
0.743137
0.732622
0.721529
0.709962
0.698041
0.685892
0.673644
0.661423
0.649347
0.637519
0.626027
0.614937
0.60429
0.5941
0.584356
0.575021
0.566032
0.557306
0.548746
0.540246
0.5317
0.523015
0.514119
0.504962
0.495523
0.485803
0.475823
0.465843
0.456068
0.446551
0.437351
0.428524
0.42012
0.412177
0.404715
0.397738
0.391221
0.385113
0.379336
0.37379
0.368342
0.362821
0.356988
0.350537
0.343103
0.334245
0.323813
0.311736
0.298017
0.282755
0.266148
0.248511
0.230361
1.22446
2.10787
2.45285
2.57094
2.56379
2.49129
2.39741
2.31184
2.25039
2.21747
2.21026
2.22277
2.24851
2.2818
2.31814
2.35418
2.38757
2.4167
2.44062
2.45887
2.47137
2.47837
2.48037
2.47804
2.47216
2.46358
2.45318
2.4418
2.43025
2.41925
2.40942
2.40129
2.39527
2.39165
2.3906
2.3922
2.39639
2.40304
2.41193
2.42277
2.43578
2.45082
2.46751
2.48541
2.50404
2.52293
2.54163
2.55971
2.57681
2.59257
2.60669
2.61894
2.62909
2.63698
2.64248
2.64548
2.64594
2.6438
2.63904
2.63168
2.62171
2.60916
2.59406
2.57642
2.55624
2.53354
2.5083
2.48049
2.45009
2.41709
2.38148
2.34332
2.30267
2.25969
2.21458
2.1676
2.11909
2.06943
2.01903
1.96833
1.91778
1.86781
1.8188
1.77111
1.72503
1.68081
1.6384
1.59789
1.55929
1.52252
1.48744
1.45386
1.42156
1.39032
1.35992
1.33016
1.30086
1.27192
1.24325
1.21486
1.18678
1.15911
1.13201
1.10567
1.08029
1.05611
1.03332
1.0121
0.992605
0.974907
0.959029
0.944924
0.932485
0.921541
0.912106
0.903876
0.896415
0.889368
0.882425
0.875318
0.867817
0.859732
0.850917
0.841263
0.830708
0.819228
0.806838
0.793586
0.779553
0.764846
0.749593
0.73394
0.718042
0.702058
0.686147
0.67046
0.655132
0.640281
0.625996
0.61234
0.599342
0.586998
0.575271
0.564091
0.553365
0.542979
0.532807
0.522726
0.512623
0.502409
0.492025
0.481446
0.470678
0.459755
0.4488
0.438183
0.428004
0.418341
0.409267
0.400838
0.393089
0.386022
0.379604
0.373762
0.36839
0.363354
0.358508
0.353685
0.348693
0.343291
0.337184
0.330041
0.321477
0.311345
0.299619
0.286343
0.271645
0.255746
0.238958
0.221808
1.22373
2.04653
2.38575
2.51561
2.5314
2.48745
2.42262
2.36273
2.32142
2.30266
2.30429
2.32136
2.34835
2.38028
2.41316
2.44397
2.47061
2.49168
2.50641
2.51448
2.51601
2.51141
2.50132
2.48659
2.46817
2.44707
2.42434
2.40099
2.37798
2.35618
2.33636
2.31917
2.3051
2.29453
2.28767
2.28461
2.28529
2.28955
2.29711
2.30759
2.32119
2.33764
2.35648
2.37713
2.39903
2.42162
2.44437
2.46679
2.48844
2.50892
2.52791
2.54513
2.56034
2.57338
2.58411
2.59243
2.59831
2.60172
2.60266
2.60117
2.5973
2.59112
2.58268
2.57204
2.55924
2.54431
2.52723
2.50795
2.48641
2.4625
2.43612
2.40717
2.37559
2.34135
2.30451
2.26519
2.22362
2.18008
2.13495
2.08863
2.04159
1.99431
1.94724
1.90081
1.85543
1.81142
1.76887
1.72799
1.68889
1.65154
1.61587
1.58172
1.54889
1.51717
1.48634
1.45617
1.42648
1.3971
1.36794
1.33894
1.31011
1.28152
1.25329
1.2256
1.19866
1.17269
1.14793
1.12456
1.10278
1.08268
1.06433
1.04771
1.03272
1.01922
1.00703
0.996189
0.986191
0.976625
0.967141
0.957438
0.94726
0.936395
0.924676
0.911985
0.898247
0.883437
0.867569
0.850697
0.832914
0.81434
0.795124
0.775437
0.755463
0.735395
0.715429
0.695755
0.676548
0.657962
0.640124
0.623126
0.607018
0.591811
0.577472
0.563928
0.551072
0.53877
0.526872
0.515224
0.503687
0.492141
0.480504
0.468733
0.456831
0.444836
0.432822
0.421114
0.409985
0.399536
0.389866
0.381059
0.373165
0.366187
0.360067
0.354687
0.349877
0.345439
0.341165
0.336844
0.332255
0.327151
0.321254
0.314273
0.305899
0.296006
0.284618
0.271824
0.257784
0.242738
0.226998
0.211076
1.21783
1.98013
2.3136
2.45522
2.49349
2.47711
2.43992
2.40407
2.38134
2.37546
2.38495
2.4059
2.43365
2.4639
2.49306
2.51839
2.53795
2.55047
2.5553
2.55225
2.54157
2.52384
2.4999
2.47079
2.43772
2.40193
2.36472
2.32736
2.29104
2.25683
2.22568
2.19837
2.17551
2.15754
2.14469
2.13707
2.13459
2.13703
2.14404
2.15514
2.17024
2.18891
2.21054
2.23448
2.2601
2.28677
2.31391
2.34097
2.36747
2.39298
2.41714
2.43963
2.46019
2.47864
2.49482
2.50862
2.51998
2.5289
2.53538
2.53948
2.54129
2.54092
2.53848
2.53409
2.52787
2.51991
2.51025
2.49889
2.48577
2.47077
2.45373
2.43445
2.41273
2.38837
2.36126
2.33133
2.29862
2.26329
2.22557
2.18581
2.14442
2.10188
2.05868
2.0153
1.97223
1.92986
1.88846
1.84838
1.80979
1.77277
1.73731
1.70331
1.67062
1.63906
1.6084
1.57843
1.54893
1.51974
1.49071
1.46176
1.43286
1.40404
1.37539
1.34707
1.31926
1.29219
1.26607
1.24115
1.2176
1.19557
1.17514
1.15631
1.13902
1.12313
1.10841
1.09491
1.08232
1.07018
1.05808
1.04571
1.03279
1.01908
1.0044
0.988616
0.97165
0.953464
0.93407
0.913523
0.891919
0.869389
0.846098
0.822234
0.798009
0.77365
0.749391
0.725463
0.70209
0.679473
0.657785
0.637159
0.617681
0.599384
0.582249
0.566204
0.55113
0.53687
0.523246
0.510066
0.497147
0.484332
0.471498
0.45857
0.44553
0.432407
0.419276
0.406321
0.393983
0.382423
0.371779
0.362178
0.353717
0.346423
0.340239
0.335016
0.330525
0.326494
0.322642
0.318698
0.314406
0.309505
0.303735
0.296851
0.28863
0.278977
0.267965
0.255729
0.242459
0.228411
0.213885
0.199365
1.20777
1.91091
2.23861
2.39119
2.45023
2.45904
2.44686
2.43261
2.42654
2.43221
2.44881
2.47328
2.50176
2.53045
2.55612
2.57618
2.58878
2.59272
2.58738
2.57269
2.54903
2.51714
2.47813
2.43334
2.38428
2.33257
2.27985
2.22772
2.17767
2.13101
2.08886
2.05211
2.02142
1.9972
1.97967
1.96883
1.96451
1.96639
1.974
1.98674
2.00397
2.02506
2.04932
2.07605
2.1046
2.13436
2.16478
2.19533
2.22556
2.25506
2.28345
2.31043
2.33573
2.3591
2.38038
2.3994
2.41606
2.4303
2.44211
2.45152
2.45861
2.46352
2.46641
2.46745
2.46685
2.46478
2.4614
2.4568
2.45102
2.444
2.4356
2.42557
2.41365
2.3995
2.38282
2.36335
2.34091
2.31545
2.28703
2.25584
2.22218
2.18645
2.14912
2.1107
2.07171
2.03259
1.99382
1.95584
1.91893
1.88328
1.84895
1.81592
1.7841
1.75334
1.72347
1.69427
1.66555
1.6371
1.60878
1.58047
1.5521
1.52367
1.49524
1.46692
1.43888
1.41133
1.38449
1.35857
1.33378
1.31029
1.2882
1.26753
1.24825
1.23022
1.21326
1.19717
1.18202
1.1673
1.15259
1.13756
1.12191
1.10538
1.08779
1.06898
1.04886
1.02738
1.00456
0.980432
0.955099
0.928694
0.901385
0.873376
0.844897
0.816203
0.787563
0.759254
0.731549
0.704705
0.678954
0.654481
0.631423
0.609852
0.589774
0.571126
0.553784
0.537572
0.522274
0.507656
0.493483
0.479543
0.465658
0.451705
0.437624
0.423419
0.409155
0.394944
0.381204
0.368261
0.35628
0.345456
0.335952
0.327861
0.321161
0.315701
0.31121
0.307342
0.303733
0.300041
0.295958
0.291205
0.285534
0.278748
0.270709
0.261355
0.250804
0.239232
0.226853
0.213927
0.200738
0.187721
1.19251
1.83635
2.15821
2.32106
2.3993
2.43119
2.44174
2.44711
2.45624
2.47259
2.49593
2.52394
2.5534
2.58097
2.60363
2.61891
2.62493
2.6205
2.60501
2.57844
2.54132
2.49464
2.43984
2.37865
2.31308
2.24524
2.17725
2.11113
2.0487
1.99151
1.94079
1.89742
1.86197
1.83469
1.8156
1.80447
1.80092
1.80444
1.81439
1.83007
1.85009
1.87353
1.89963
1.92774
1.95726
1.98771
2.01864
2.0497
2.08057
2.11098
2.1407
2.16949
2.19714
2.22343
2.24814
2.27106
2.292
2.3108
2.32733
2.34155
2.35345
2.36312
2.37071
2.37642
2.38049
2.38321
2.38484
2.38562
2.38573
2.38525
2.38415
2.38227
2.37934
2.37497
2.36872
2.36015
2.34886
2.33455
2.31702
2.29625
2.27236
2.24559
2.2163
2.18494
2.15202
2.11802
2.08359
2.04925
2.0154
1.98233
1.9502
1.91907
1.88894
1.85972
1.83129
1.80347
1.77607
1.74892
1.72183
1.69468
1.66738
1.63988
1.61222
1.58446
1.55675
1.52927
1.50221
1.4758
1.45025
1.42572
1.40233
1.38014
1.35913
1.33919
1.32015
1.30172
1.28402
1.26672
1.2494
1.2317
1.21332
1.19401
1.17355
1.15179
1.12862
1.10398
1.07787
1.05032
1.02142
0.991295
0.960117
0.928089
0.895453
0.86248
0.829471
0.79674
0.764614
0.73341
0.703426
0.674919
0.648089
0.623066
0.599898
0.578549
0.558897
0.540749
0.523858
0.507938
0.492695
0.477844
0.46314
0.44839
0.433474
0.418347
0.40304
0.387647
0.372446
0.357941
0.344332
0.331884
0.320858
0.311445
0.303707
0.297535
0.292648
0.288642
0.285067
0.281496
0.277554
0.272931
0.267383
0.260755
0.252984
0.244038
0.234071
0.223286
0.211913
0.200202
0.188414
0.176925
1.17514
1.76724
2.08322
2.25369
2.34682
2.39672
2.42513
2.44601
2.46736
2.49253
2.52172
2.55313
2.58402
2.61134
2.63222
2.64417
2.64528
2.63425
2.61045
2.57389
2.52524
2.46576
2.39726
2.32198
2.24245
2.16136
2.08138
2.00494
1.93418
1.87079
1.81597
1.77047
1.7346
1.7083
1.69122
1.68278
1.6823
1.68898
1.70201
1.72059