/*--------------------------------*- C++ -*----------------------------------*\
  =========                 |
  \\      /  F ield         | OpenFOAM: The Open Source CFD Toolbox
   \\    /   O peration     | Website:  https://openfoam.org
    \\  /    A nd           | Version:  9
     \\/     M anipulation  |
\*---------------------------------------------------------------------------*/
FoamFile
{
    format      ascii;
    class       volScalarField;
    location    "0.12";
    object      nut;
}
// * * * * * * * * * * * * * * * * * * * * * * * * * * * * * * * * * * * * * //

dimensions      [0 2 -1 0 0 0 0];

internalField   nonuniform List<scalar> 
12225
(
3.03575e-05
1.81938e-05
1.17716e-05
8.72944e-06
7.53824e-06
7.25421e-06
7.33338e-06
7.49024e-06
7.59701e-06
7.62782e-06
7.61667e-06
7.62657e-06
7.72672e-06
7.98205e-06
8.52606e-06
1.02165e-05
1.56958e-05
2.90701e-05
0.000163376
0.000100198
8.10283e-05
7.45558e-05
7.38339e-05
7.53688e-05
7.69646e-05
7.74867e-05
7.6474e-05
7.40324e-05
7.07292e-05
6.74016e-05
6.49451e-05
6.42103e-05
6.64077e-05
7.18497e-05
7.79113e-05
8.45114e-05
0.000340977
0.000218205
0.000176699
0.000160907
0.000157651
0.000159764
0.000162248
0.000162335
0.000158929
0.000152202
0.000143286
0.000133947
0.000126199
0.000121937
0.000122955
0.000127681
0.000121825
0.0001186
0.000504625
0.000346614
0.000282598
0.000255253
0.000247025
0.00024766
0.000249786
0.000249051
0.000243526
0.000233093
0.000218957
0.000203316
0.000189022
0.000179018
0.000175404
0.000173952
0.000154361
0.000143367
0.00062896
0.000467983
0.000389114
0.000351682
0.000337945
0.000336017
0.000336995
0.000335343
0.000328328
0.000315321
0.000297227
0.000276179
0.000255362
0.000238418
0.000227494
0.000215836
0.000183896
0.000162821
0.000714016
0.000572492
0.000489343
0.00044567
0.00042743
0.000422844
0.000422449
0.00042004
0.000412259
0.000397885
0.000377328
0.000352296
0.00032578
0.000301517
0.000281336
0.00025706
0.000212113
0.000179692
0.00076885
0.000656435
0.000578527
0.000533464
0.000512781
0.000506268
0.000504802
0.000502031
0.000494211
0.000479584
0.000457996
0.000430545
0.000399619
0.000368394
0.000337931
0.000299707
0.000240958
0.000196316
0.000803003
0.000720271
0.000654034
0.000612197
0.000591616
0.000584461
0.00058263
0.000580061
0.000572883
0.000558929
0.000537511
0.000509075
0.000475196
0.00043801
0.000397412
0.000345163
0.000272463
0.000214626
0.000823877
0.000766745
0.000715149
0.000680042
0.000662026
0.000655737
0.000654457
0.000652728
0.000646779
0.00063418
0.00061379
0.000585483
0.000550027
0.000508361
0.000459051
0.000394257
0.00030841
0.000236361
0.000836532
0.000799417
0.000762623
0.000736236
0.000722708
0.000718683
0.00071888
0.000718604
0.000714307
0.000703439
0.00068452
0.00065701
0.000621071
0.000576647
0.00052117
0.00044703
0.000350361
0.000263609
0.000844199
0.000821738
0.00079811
0.000780951
0.000773022
0.000772284
0.0007747
0.000776311
0.000773876
0.000764803
0.000747348
0.000720782
0.000685016
0.000639503
0.000581082
0.000502282
0.000399151
0.00029902
0.000848476
0.000835373
0.000821517
0.000812184
0.000809592
0.000812299
0.000817113
0.000820654
0.000819883
0.000812163
0.000795626
0.000769576
0.000734083
0.000688754
0.000630581
0.000552367
0.000448783
0.000339957
0.000851245
0.000844775
0.000838655
0.000836129
0.000838526
0.000844611
0.000851812
0.000857216
0.000857903
0.00085112
0.000834965
0.000808921
0.000773567
0.000729248
0.000673896
0.000601306
0.000504819
0.00039511
0.000853172
0.000851593
0.000851738
0.000855237
0.000862401
0.000871919
0.00088161
0.000888867
0.00089072
0.000884235
0.000867414
0.000840131
0.00080393
0.000760583
0.000709823
0.000647345
0.000566067
0.00046702
0.000854393
0.000856001
0.000860567
0.000868647
0.000879656
0.00089207
0.000903902
0.000912632
0.000915071
0.000907884
0.000888936
0.000858681
0.000820043
0.000776787
0.000731082
0.000681328
0.000621788
0.00054735
0.000855059
0.000858387
0.000865504
0.000876372
0.000889799
0.000904084
0.000917322
0.000926912
0.000929214
0.000920314
0.000897907
0.0008631
0.000820376
0.000775654
0.000733579
0.000695355
0.00065793
0.000615441
0.000855305
0.000859245
0.00086736
0.000879344
0.000893716
0.000908756
0.000922626
0.000932553
0.000934379
0.000923589
0.000897676
0.000858264
0.000811105
0.0007638
0.000722773
0.000691206
0.000668524
0.000651149
0.000855211
0.000858998
0.000867017
0.00087886
0.000893029
0.000907962
0.00092195
0.000932124
0.000934008
0.00092272
0.000895537
0.000854142
0.000804676
0.000755356
0.000713316
0.000682647
0.000664177
0.000656395
0.000854753
0.000857711
0.000864665
0.000875159
0.000887898
0.000901679
0.000915119
0.000925568
0.000928691
0.000919591
0.000895197
0.000856426
0.000808494
0.000758996
0.000715057
0.000681282
0.000659419
0.000649194
0.000853924
0.000855194
0.000859639
0.000866749
0.000875602
0.000885629
0.000896193
0.000905479
0.000909983
0.000905254
0.000887799
0.000857009
0.000815897
0.000770167
0.000726257
0.000689467
0.000662976
0.000647932
0.000852744
0.000851241
0.000851428
0.0008529
0.000855333
0.000859008
0.000864208
0.000870113
0.000874177
0.000872623
0.000861893
0.000840224
0.000808566
0.000770408
0.000730734
0.000694693
0.000666469
0.000648698
0.000850602
0.00084382
0.000836442
0.00082873
0.0008214
0.000815835
0.000813306
0.000813849
0.000815624
0.000815537
0.00081029
0.000797535
0.000776698
0.000749204
0.000718126
0.000687508
0.000661542
0.000643813
0.000846145
0.000829232
0.000809421
0.000788651
0.000768967
0.000752758
0.000741859
0.000736534
0.000735132
0.000735021
0.00073337
0.000727856
0.000717169
0.000701275
0.000681446
0.000660108
0.000640505
0.000626188
0.000836184
0.000800741
0.00076292
0.000726675
0.000694512
0.000668847
0.00065139
0.000641563
0.000637437
0.000636601
0.000636798
0.000636196
0.000633479
0.000627903
0.00061944
0.000608945
0.000598269
0.000590132
0.000813674
0.000747812
0.000688653
0.000638537
0.000597528
0.000566749
0.000546371
0.000534687
0.000529245
0.00052776
0.00052859
0.000530651
0.000533095
0.000535088
0.000535896
0.000535224
0.00053361
0.00053265
0.000764682
0.000657792
0.000581168
0.000524469
0.000481833
0.00045195
0.000432968
0.000422293
0.000417162
0.000415522
0.000416355
0.00041935
0.000424288
0.000430597
0.000437332
0.000443573
0.000448961
0.000454095
0.00066649
0.000522478
0.000442834
0.000391056
0.000355358
0.000331729
0.000317537
0.000309917
0.000306262
0.000304966
0.000305599
0.000308441
0.000313778
0.000321379
0.000330411
0.000339811
0.00034883
0.000357446
0.000495639
0.000349428
0.000287514
0.000251464
0.000228071
0.000213556
0.000205504
0.000201504
0.000199612
0.000198871
0.000199295
0.000201419
0.000205715
0.00021218
0.000220259
0.000229127
0.000238116
0.000247003
0.000262287
0.000172101
0.00013957
0.000121867
0.000111043
0.000104855
0.00010168
0.000100144
9.93427e-05
9.89615e-05
9.91546e-05
0.000100276
0.000102619
0.000106247
0.000110964
0.000116439
0.000122402
0.000128746
5.9491e-05
4.25369e-05
3.15659e-05
2.43883e-05
1.9736e-05
1.68798e-05
1.52856e-05
1.44997e-05
1.41887e-05
1.41652e-05
1.43633e-05
1.47955e-05
1.5513e-05
1.65773e-05
1.80391e-05
1.99318e-05
2.22834e-05
2.51279e-05
0.000111529
8.05788e-05
8.38233e-05
8.52248e-05
8.53892e-05
8.47043e-05
8.33745e-05
8.15934e-05
8.02542e-05
7.92563e-05
7.86147e-05
7.84225e-05
7.8759e-05
7.95575e-05
8.03693e-05
8.07031e-05
8.03286e-05
7.98484e-05
8.16097e-05
8.47462e-05
8.82478e-05
9.16808e-05
9.48664e-05
9.77418e-05
0.000100297
0.000102544
0.000104506
0.000106206
0.000107668
0.000108913
0.000109963
0.000110833
0.000111539
0.000112096
0.000112513
0.000112802
0.000112972
0.00011303
0.000112984
0.000112841
0.00011261
0.000112302
0.000111936
0.000111455
0.000110863
0.000110161
0.000109353
0.000108439
0.000107419
0.000106296
0.00010507
0.000103744
0.00010232
0.0001008
9.91893e-05
9.74915e-05
9.5712e-05
9.38566e-05
9.19325e-05
8.99474e-05
8.79102e-05
8.58309e-05
8.37205e-05
8.15916e-05
7.94576e-05
7.73337e-05
7.52361e-05
7.31822e-05
7.11902e-05
6.92785e-05
6.74651e-05
6.57667e-05
6.41975e-05
6.27681e-05
6.14849e-05
6.03499e-05
5.93604e-05
5.85098e-05
5.77884e-05
5.71849e-05
5.6687e-05
5.62822e-05
5.59587e-05
5.57055e-05
5.55125e-05
5.53707e-05
5.52718e-05
5.52082e-05
5.5173e-05
5.516e-05
5.51632e-05
5.51772e-05
5.51981e-05
5.52232e-05
5.52475e-05
5.52684e-05
5.52848e-05
5.52971e-05
5.53064e-05
5.53097e-05
5.53095e-05
5.53082e-05
5.53074e-05
5.53078e-05
5.53095e-05
5.53126e-05
5.53165e-05
5.53208e-05
5.53246e-05
5.53267e-05
5.53258e-05
5.53205e-05
5.53091e-05
5.52901e-05
5.52616e-05
5.52221e-05
5.51698e-05
5.51033e-05
5.50212e-05
5.49223e-05
5.48057e-05
5.46706e-05
5.45166e-05
5.43436e-05
5.41515e-05
5.39407e-05
5.37117e-05
5.34655e-05
5.32029e-05
5.29251e-05
5.26332e-05
5.23287e-05
5.20126e-05
5.16862e-05
5.13506e-05
5.10067e-05
5.06553e-05
5.02967e-05
4.99315e-05
4.95605e-05
4.91853e-05
4.88079e-05
4.84296e-05
4.80497e-05
4.76703e-05
4.73594e-05
4.70885e-05
4.67098e-05
4.62755e-05
4.62704e-05
4.65192e-05
0.000212915
4.79925e-05
4.79667e-05
4.66937e-05
4.65529e-05
0.000206946
4.73871e-05
4.72086e-05
4.69781e-05
4.68052e-05
4.59316e-05
0.000198783
0.000200898
0.000199237
0.000198238
0.000196348
0.000193812
0.000191339
0.000189288
0.000187527
0.000186048
0.0001849
0.000183821
0.000182133
0.000178932
0.000173441
0.000165311
0.000154721
0.000142887
0.000168852
0.000214293
0.00028166
0.00033267
0.000367138
0.000388056
0.000398725
0.000401893
0.000392235
0.000378022
0.000365603
0.000358128
0.000355681
0.000356099
0.000357425
0.000356268
0.00035246
0.000347518
0.000343679
0.000342795
0.000345483
0.000351732
0.000361393
0.000374291
0.000390203
0.000408837
0.00042983
0.000452758
0.000477156
0.000502552
0.00052849
0.000554551
0.000580366
0.000605617
0.00063003
0.00065337
0.00067542
0.000695981
0.000714847
0.000731812
0.000746677
0.000758816
0.000769231
0.000778809
0.000787594
0.000795537
0.00080258
0.000808665
0.000813731
0.000817722
0.000820583
0.000822263
0.000822713
0.000821889
0.000819749
0.000816253
0.000811363
0.000805041
0.000797249
0.000787945
0.000777083
0.000764613
0.000750479
0.000734623
0.000716991
0.000697538
0.000676244
0.000653129
0.000628276
0.000601852
0.000574125
0.000545475
0.000516384
0.000487411
0.000459143
0.000432144
0.000406898
0.000383765
0.000362964
0.000344572
0.000328545
0.000314748
0.00030299
0.000293049
0.000284703
0.000277736
0.000271955
0.000267193
0.000263306
0.000260177
0.00025771
0.000255825
0.000254461
0.000253553
0.000253054
0.000252894
0.000252992
0.000253271
0.000253645
0.000254105
0.000254698
0.000255491
0.00025653
0.000257832
0.000259407
0.000261266
0.000263412
0.000265848
0.000268573
0.000271582
0.000274864
0.000278406
0.00028219
0.000286195
0.000290396
0.000294763
0.000299267
0.000303876
0.000308557
0.000313278
0.000318008
0.000322718
0.000327381
0.000331976
0.000336483
0.000340888
0.000345181
0.000349357
0.000353414
0.000357355
0.000361186
0.000364913
0.000368548
0.000372099
0.000375576
0.000378986
0.000382333
0.000385619
0.000388837
0.000391967
0.000394967
0.000397737
0.000400086
0.000401734
0.000402586
0.000403062
0.000401227
0.000400207
0.000398034
0.000394231
0.000390706
0.000407783
0.000381442
0.000373765
0.000363559
0.000354585
0.000364543
0.000337936
0.000326925
0.000317944
0.000314046
0.000302212
0.000310983
0.000320891
0.000318491
0.000324463
0.000322433
0.00031266
0.000300077
0.000286885
0.000273708
0.000261287
0.000250462
0.000241512
0.00023405
0.000227294
0.000220402
0.000212756
0.000204076
0.000195073
4.08653e-05
0.0002043
0.000366709
0.000469438
0.000530022
0.000560891
0.000570334
0.000562677
0.000545816
0.000528847
0.000516563
0.000510203
0.000508143
0.000507789
0.000507642
0.000507794
0.000510165
0.000517258
0.000531146
0.00055302
0.00058311
0.000620977
0.000665726
0.000716127
0.000770714
0.000827915
0.000886204
0.000944227
0.00100089
0.0010554
0.00110724
0.00115613
0.00120197
0.00124478
0.00128463
0.00132164
0.00135591
0.00138754
0.00141662
0.00144322
0.00146743
0.00148913
0.00150926
0.00152804
0.00154546
0.00156141
0.00157579
0.00158848
0.00159939
0.0016084
0.00161542
0.00162036
0.00162312
0.00162365
0.00162186
0.0016177
0.00161112
0.00160205
0.00159047
0.0015763
0.00155951
0.00154004
0.00151783
0.00149282
0.00146494
0.00143415
0.00140042
0.00136375
0.0013242
0.00128191
0.00123713
0.00119021
0.00114163
0.00109199
0.00104202
0.000992466
0.000944133
0.000897765
0.000854019
0.000813409
0.000776283
0.000742816
0.000713021
0.00068678
0.000663872
0.000644019
0.00062691
0.00061223
0.000599678
0.000588974
0.000579866
0.000572128
0.000565556
0.000559982
0.000555249
0.000551236
0.000547853
0.000545042
0.000542784
0.000541111
0.000540081
0.000539751
0.000540157
0.000541316
0.00054324
0.000545941
0.000549404
0.000553605
0.000558512
0.000564085
0.000570275
0.000577029
0.000584285
0.000591975
0.000600024
0.000608354
0.000616884
0.000625532
0.000634217
0.000642861
0.000651391
0.000659741
0.000667853
0.000675679
0.000683182
0.000690334
0.000697119
0.000703532
0.000709577
0.000715267
0.000720619
0.000725659
0.000730413
0.000734909
0.00073917
0.00074322
0.000747073
0.000750733
0.000754195
0.000757435
0.0007604
0.000762987
0.000765022
0.000766284
0.000766707
0.000766607
0.000765485
0.000763019
0.000758309
0.000752065
0.000744285
0.000736535
0.000723959
0.000711351
0.00069656
0.000681108
0.000666409
0.000647436
0.000628464
0.000609713
0.000591789
0.000571062
0.000552754
0.000535257
0.000516154
0.000498835
0.000478631
0.000454832
0.000428366
0.00040189
0.000375924
0.00035117
0.00032855
0.000308683
0.000291631
0.000276972
0.000264003
0.000252023
0.000240422
0.000229409
4.71269e-05
0.000291858
0.000487546
0.000603776
0.000662125
0.000681988
0.000678173
0.0006626
0.000644622
0.00062956
0.000619571
0.000614825
0.000614738
0.00061917
0.000629114
0.00064641
0.000673105
0.000710612
0.000759272
0.000818353
0.000886224
0.000960657
0.00103914
0.00111918
0.00119856
0.0012755
0.00134875
0.00141753
0.0014815
0.00154065
0.00159518
0.00164543
0.00169181
0.00173472
0.00177455
0.00181162
0.0018462
0.0018785
0.00190869
0.00193687
0.0019631
0.00198747
0.00201039
0.00203192
0.00205196
0.00207039
0.00208707
0.00210187
0.00211465
0.00212527
0.00213363
0.00213962
0.00214314
0.0021441
0.00214245
0.00213814
0.00213112
0.00212137
0.00210888
0.00209363
0.00207562
0.00205486
0.00203133
0.00200504
0.00197598
0.00194414
0.00190952
0.00187211
0.00183196
0.00178913
0.00174372
0.00169594
0.00164604
0.00159438
0.00154145
0.00148779
0.00143404
0.0013809
0.00132905
0.00127915
0.00123179
0.00118742
0.00114636
0.00110879
0.00107472
0.00104406
0.0010166
0.000992088
0.000970216
0.000950675
0.000933167
0.000917427
0.000903199
0.000890258
0.00087847
0.00086774
0.00085801
0.000849281
0.000841593
0.000835014
0.000829623
0.000825496
0.000822686
0.000821226
0.000821123
0.000822363
0.000824947
0.000828871
0.000834048
0.000840351
0.000847658
0.000855847
0.000864792
0.000874364
0.000884429
0.000894853
0.000905503
0.000916247
0.00092696
0.000937526
0.000947837
0.000957801
0.000967338
0.000976385
0.000984895
0.000992836
0.00100019
0.00100697
0.00101317
0.00101883
0.00102398
0.00102866
0.0010329
0.00103676
0.00104028
0.00104348
0.00104639
0.00104903
0.00105139
0.00105344
0.00105514
0.00105639
0.00105706
0.00105698
0.00105602
0.0010542
0.00105125
0.00104649
0.00103951
0.00103052
0.00101922
0.00100613
0.000991354
0.000974822
0.00095635
0.000936131
0.000914271
0.000890571
0.000865309
0.000839006
0.000811802
0.000783203
0.000754144
0.000724679
0.000694703
0.00066463
0.000633342
0.000600498
0.00056603
0.000530234
0.000494904
0.000460436
0.000427501
0.000396801
0.000368827
0.000343758
0.000321446
0.000301537
0.000283457
0.000267171
5.24535e-05
0.000356157
0.000588762
0.00071735
0.000775886
0.000788742
0.00077633
0.000754632
0.000733626
0.000718394
0.000711029
0.00071242
0.000723393
0.000745171
0.000779181
0.000826418
0.00088686
0.00095922
0.00104114
0.00112965
0.00122158
0.00131397
0.00140429
0.0014906
0.00157162
0.00164663
0.0017154
0.00177809
0.00183509
0.00188696
0.00193433
0.0019778
0.00201799
0.0020554
0.00209047
0.00212355
0.00215491
0.00218473
0.00221313
0.00224016
0.00226581
0.00229024
0.00231361
0.00233587
0.0023569
0.00237655
0.00239465
0.00241104
0.00242555
0.00243803
0.00244833
0.00245634
0.00246193
0.00246502
0.00246554
0.00246343
0.00245866
0.00245124
0.00244116
0.00242845
0.00241315
0.0023953
0.00237496
0.00235216
0.00232696
0.00229939
0.00226948
0.00223724
0.00220269
0.00216584
0.00212672
0.0020854
0.00204196
0.00199656
0.00194943
0.00190088
0.00185131
0.00180119
0.00175108
0.00170154
0.00165318
0.00160652
0.00156203
0.00152007
0.00148086
0.00144449
0.00141092
0.00138002
0.00135155
0.00132526
0.00130079
0.00127782
0.00125618
0.00123574
0.00121639
0.00119807
0.0011808
0.00116463
0.0011497
0.00113614
0.00112412
0.00111378
0.00110526
0.00109863
0.00109397
0.00109126
0.0010905
0.00109159
0.00109454
0.0010993
0.00110558
0.00111316
0.00112183
0.00113137
0.0011416
0.00115231
0.00116331
0.00117443
0.0011855
0.00119637
0.00120689
0.00121697
0.0012265
0.0012354
0.00124363
0.00125115
0.00125795
0.00126403
0.00126942
0.00127414
0.00127824
0.00128176
0.00128478
0.00128733
0.00128947
0.00129124
0.00129267
0.00129378
0.00129457
0.001295
0.00129504
0.00129459
0.00129353
0.00129171
0.00128896
0.00128514
0.00127998
0.00127299
0.0012639
0.0012526
0.00123878
0.00122278
0.00120498
0.00118516
0.00116326
0.00113927
0.0011132
0.00108515
0.0010552
0.00102365
0.000990644
0.000956294
0.000920936
0.000884798
0.000848082
0.000810913
0.000773092
0.000734518
0.000695055
0.000654283
0.00061301
0.000572255
0.000532388
0.000493936
0.000457437
0.000423345
0.000391961
0.000363407
0.000337524
0.000314483
5.63203e-05
0.000411379
0.000675887
0.000817897
0.000878191
0.000888534
0.000872731
0.000848524
0.000827651
0.000816624
0.000818546
0.00083493
0.000866686
0.000914245
0.000977174
0.00105381
0.00114129
0.00123601
0.00133419
0.00143242
0.00152792
0.00161861
0.00170312
0.0017807
0.00185115
0.00191463
0.00197161
0.00202273
0.00206874
0.0021104
0.00214847
0.00218363
0.00221649
0.00224755
0.0022772
0.00230576
0.00233343
0.00236035
0.00238658
0.00241214
0.00243696
0.00246122
0.00248495
0.00250806
0.00253039
0.00255176
0.00257197
0.00259082
0.00260812
0.00262369
0.00263734
0.00264892
0.00265828
0.00266531
0.00266991
0.00267202
0.00267159
0.00266863
0.00266313
0.00265515
0.00264474
0.00263197
0.00261694
0.00259973
0.00258043
0.00255912
0.00253585
0.00251068
0.00248364
0.00245473
0.00242396
0.00239132
0.00235682
0.00232047
0.00228235
0.00224257
0.00220132
0.00215888
0.00211558
0.00207184
0.00202812
0.00198492
0.00194269
0.00190186
0.00186274
0.00182557
0.00179043
0.00175729
0.00172603
0.0016962
0.00166761
0.0016401
0.00161349
0.00158761
0.00156237
0.00153773
0.00151373
0.0014905
0.00146823
0.00144716
0.00142755
0.00140968
0.00139379
0.00138009
0.00136875
0.00135984
0.00135341
0.00134942
0.00134778
0.00134839
0.00135127
0.00135603
0.00136233
0.00136988
0.00137838
0.00138758
0.00139722
0.00140709
0.00141697
0.00142668
0.00143605
0.00144496
0.00145328
0.00146093
0.00146786
0.00147402
0.00147941
0.00148402
0.00148789
0.00149105
0.00149354
0.00149544
0.00149678
0.00149764
0.00149806
0.0014981
0.00149779
0.00149715
0.00149616
0.00149482
0.00149305
0.00149078
0.00148789
0.00148422
0.00147957
0.00147375
0.0014665
0.00145746
0.00144636
0.00143299
0.00141707
0.00139855
0.00137799
0.00135529
0.00133041
0.00130329
0.00127398
0.00124256
0.00120912
0.00117387
0.00113699
0.00109867
0.00105919
0.00101877
0.000977674
0.000936038
0.00089391
0.000851306
0.00080815
0.00076418
0.000718995
0.000673942
0.000629347
0.000585618
0.000543231
0.000502686
0.00046446
0.000428956
0.000396401
0.000367282
5.89474e-05
0.000451636
0.000740068
0.000895203
0.000964061
0.000980213
0.000969001
0.000949928
0.000936679
0.000937339
0.00095568
0.000992774
0.00104803
0.00111953
0.00120419
0.00129804
0.00139678
0.00149641
0.00159365
0.00168605
0.00177202
0.00185065
0.00192161
0.00198499
0.00204122
0.00209092
0.00213488
0.00217393
0.00220892
0.00224067
0.00226992
0.00229732
0.00232343
0.0023487
0.00237345
0.00239795
0.00242234
0.00244672
0.0024711
0.00249547
0.00251977
0.00254416
0.00256863
0.00259304
0.00261721
0.00264092
0.00266395
0.00268608
0.00270709
0.00272673
0.0027448
0.00276109
0.00277543
0.00278764
0.0027976
0.0028052
0.00281038
0.00281312
0.00281341
0.00281128
0.00280682
0.00280011
0.00279126
0.00278039
0.00276763
0.00275309
0.00273689
0.00271911
0.00269981
0.00267904
0.00265679
0.00263307
0.00260783
0.00258104
0.00255268
0.00252274
0.00249126
0.00245834
0.00242414
0.0023889
0.00235291
0.00231655
0.00228018
0.00224419
0.00220891
0.00217463
0.0021415
0.00210962
0.00207864
0.00204844
0.0020189
0.00198984
0.00196107
0.00193239
0.00190371
0.00187495
0.00184618
0.00181753
0.00178922
0.00176155
0.00173487
0.00170955
0.00168598
0.0016645
0.00164542
0.00162895
0.00161524
0.00160436
0.00159627
0.00159087
0.00158803
0.0015878
0.0015897
0.0015933
0.00159826
0.00160422
0.00161088
0.00161797
0.00162523
0.00163244
0.00163941
0.00164598
0.00165202
0.00165743
0.00166215
0.00166614
0.00166937
0.00167186
0.00167363
0.00167472
0.00167518
0.00167507
0.00167444
0.00167335
0.00167187
0.00167003
0.00166787
0.00166541
0.00166263
0.0016595
0.00165598
0.00165195
0.00164731
0.00164187
0.00163546
0.00162782
0.00161872
0.00160783
0.0015949
0.00157966
0.00156185
0.00154121
0.00151812
0.00149284
0.0014653
0.0014355
0.00140349
0.00136936
0.00133323
0.00129527
0.00125566
0.00121461
0.00117234
0.00112908
0.00108503
0.00104036
0.000995169
0.000949519
0.000903392
0.00085662
0.000808767
0.000760372
0.000712166
0.00066451
0.000617856
0.000572717
0.00052964
0.000489161
0.000451752
0.000418128
6.09382e-05
0.000470296
0.000779392
0.000951265
0.00103422
0.0010633
0.00106487
0.00105939
0.00106149
0.00107977
0.0011176
0.0011746
0.00124809
0.00133401
0.00142772
0.00152462
0.00162074
0.00171301
0.0017993
0.00187833
0.00194949
0.0020127
0.00206823
0.00211664
0.00215865
0.0021951
0.00222688
0.00225487
0.00227992
0.00230282
0.00232425
0.00234482
0.00236499
0.00238515
0.00240559
0.00242649
0.00244797
0.00247009
0.00249284
0.00251617
0.0025401
0.00256478
0.00259013
0.00261602
0.00264224
0.00266857
0.00269477
0.00272059
0.00274577
0.00277004
0.00279315
0.00281484
0.00283487
0.00285303
0.00286914
0.00288304
0.00289461
0.0029038
0.00291056
0.00291493
0.00291696
0.00291675
0.00291443
0.00291014
0.00290404
0.0028963
0.00288706
0.00287646
0.00286461
0.00285159
0.00283745
0.00282219
0.00280579
0.00278819
0.00276934
0.00274917
0.00272763
0.00270468
0.00268035
0.00265472
0.00262794
0.0026002
0.00257177
0.00254291
0.00251392
0.00248506
0.00245651
0.00242827
0.00240017
0.00237219
0.00234421
0.00231603
0.00228746
0.0022583
0.0022284
0.00219771
0.00216623
0.00213408
0.0021015
0.00206878
0.00203632
0.00200458
0.00197401
0.00194509
0.00191826
0.00189388
0.00187224
0.00185354
0.00183784
0.00182515
0.00181533
0.00180831
0.00180407
0.0018021
0.00180193
0.00180318
0.00180546
0.00180845
0.00181184
0.00181538
0.00181885
0.00182206
0.00182485
0.00182713
0.00182881
0.00182985
0.00183023
0.00182995
0.00182906
0.00182758
0.00182557
0.00182309
0.0018202
0.00181696
0.00181342
0.00180962
0.00180559
0.00180133
0.00179684
0.00179208
0.00178697
0.00178142
0.00177528
0.00176838
0.00176051
0.00175142
0.00174084
0.00172847
0.00171403
0.00169724
0.00167783
0.00165552
0.00163028
0.00160268
0.00157277
0.00154059
0.00150623
0.00146981
0.00143148
0.00139142
0.00134981
0.00130684
0.00126269
0.00121753
0.00117153
0.00112479
0.0010774
0.00102944
0.000980902
0.00093171
0.000881617
0.000830509
0.000779334
0.000728528
0.000678585
0.000630055
0.000583532
0.00053963
0.000498956
0.000462376
6.24432e-05
0.000475583
0.000800977
0.000990036
0.00109048
0.00113782
0.00115861
0.00117312
0.00119544
0.00123328
0.00128873
0.00135991
0.00144274
0.00153241
0.00162428
0.00171445
0.00180003
0.00187906
0.00195047
0.00201381
0.00206911
0.00211674
0.00215733
0.00219164
0.00222054
0.00224493
0.00226574
0.00228382
0.0023
0.00231499
0.00232941
0.00234379
0.00235854
0.00237399
0.00239037
0.00240784
0.00242648
0.00244633
0.00246737
0.00248952
0.00251293
0.00253769
0.00256373
0.00259091
0.00261902
0.00264786
0.00267717
0.00270669
0.00273614
0.00276522
0.00279362
0.00282106
0.00284722
0.00287183
0.00289463
0.00291539
0.00293394
0.00295014
0.00296392
0.00297525
0.00298417
0.00299077
0.00299518
0.00299756
0.00299812
0.00299704
0.00299455
0.00299081
0.002986
0.00298024
0.00297364
0.00296622
0.00295801
0.00294897
0.00293903
0.0029281
0.00291608
0.00290287
0.0028884
0.00287263
0.00285556
0.00283725
0.00281782
0.00279742
0.00277623
0.00275444
0.00273222
0.00270944
0.00268616
0.00266233
0.0026378
0.00261239
0.00258589
0.00255808
0.0025288
0.00249795
0.00246552
0.0024316
0.0023964
0.00236021
0.00232343
0.00228656
0.00225012
0.00221466
0.00218072
0.00214882
0.00211937
0.0020927
0.00206904
0.00204848
0.002031
0.00201647
0.00200494
0.00199622
0.0019898
0.00198523
0.00198208
0.00197995
0.00197852
0.00197746
0.00197653
0.0019755
0.00197421
0.00197252
0.00197036
0.00196768
0.00196446
0.00196071
0.00195648
0.00195181
0.00194677
0.00194143
0.00193586
0.00193011
0.00192425
0.00191831
0.00191232
0.00190628
0.00190016
0.00189391
0.00188745
0.00188067
0.00187341
0.00186547
0.00185662
0.0018466
0.0018351
0.00182181
0.00180641
0.0017886
0.00176809
0.0017446
0.00171789
0.00168836
0.00165641
0.00162212
0.00158565
0.00154719
0.00150694
0.00146511
0.00142191
0.00137753
0.0013321
0.00128574
0.00123852
0.00119047
0.00114161
0.00109198
0.00104159
0.000990392
0.000938267
0.00088499
0.000831353
0.000777968
0.000725437
0.000674381
0.000625451
0.000579317
0.000536665
0.000498453
6.33526e-05
0.000472237
0.000809664
0.00101556
0.00113542
0.00120429
0.00124801
0.00128548
0.00132905
0.00138464
0.00145293
0.00153126
0.00161544
0.00170115
0.0017847
0.00186329
0.00193511
0.00199913
0.00205497
0.00210271
0.00214276
0.00217578
0.00220254
0.00222393
0.00224087
0.0022543
0.00226511
0.00227413
0.00228211
0.00228972
0.00229752
0.00230597
0.00231543
0.00232619
0.00233844
0.00235232
0.0023679
0.00238519
0.00240417
0.00242477
0.00244723
0.00247162
0.00249787
0.00252586
0.00255542
0.00258633
0.00261836
0.00265126
0.00268474
0.00271848
0.00275215
0.00278541
0.00281791
0.00284928
0.00287918
0.0029073
0.00293336
0.00295715
0.00297849
0.00299729
0.00301355
0.00302732
0.00303871
0.00304791
0.00305514
0.00306064
0.00306468
0.00306749
0.00306932
0.00307034
0.00307071
0.00307054
0.00306986
0.00306869
0.00306696
0.0030646
0.00306149
0.0030575
0.00305249
0.00304635
0.00303896
0.00303028
0.00302028
0.00300899
0.00299647
0.00298279
0.00296804
0.00295213
0.00293512
0.00291692
0.00289736
0.00287625
0.00285334
0.00282841
0.00280127
0.0027718
0.00273994
0.00270575
0.00266942
0.00263121
0.00259154
0.00255089
0.00250982
0.00246894
0.0024289
0.00239028
0.00235364
0.00231944
0.00228805
0.00225969
0.00223447
0.00221235
0.0021932
0.00217716
0.00216387
0.00215284
0.00214361
0.00213573
0.00212881
0.00212249
0.00211648
0.00211052
0.00210442
0.00209802
0.00209125
0.00208404
0.00207639
0.00206834
0.00205993
0.00205124
0.00204236
0.00203339
0.00202442
0.00201552
0.00200678
0.00199825
0.00198993
0.00198185
0.00197397
0.00196622
0.00195852
0.00195073
0.00194266
0.00193411
0.00192481
0.00191445
0.00190271
0.00188921
0.00187361
0.00185554
0.00183467
0.00181071
0.00178337
0.00175262
0.00171912
0.00168311
0.0016448
0.00160447
0.00156242
0.00151896
0.00147434
0.00142879
0.00138244
0.00133533
0.00128744
0.00123869
0.00118902
0.00113835
0.00108668
0.00103399
0.000980211
0.000925197
0.000869564
0.000814118
0.000759604
0.000706745
0.000656262
0.000608875
0.00056532
0.000526612
6.38389e-05
0.000463478
0.000809596
0.0010316
0.00117155
0.00126318
0.00133073
0.00139095
0.00145378
0.00152326
0.00159919
0.001679
0.00175932
0.00183694
0.00190934
0.00197478
0.00203228
0.00208146
0.0021224
0.00215551
0.00218144
0.00220097
0.00221502
0.00222451
0.00223039
0.0022336
0.00223499
0.00223536
0.00223543
0.00223579
0.00223696
0.00223937
0.00224334
0.00224914
0.00225694
0.00226685
0.00227895
0.00229325
0.00230971
0.00232829
0.00234925
0.00237267
0.00239851
0.00242665
0.00245696
0.00248925
0.00252334
0.00255898
0.00259592
0.00263385
0.00267244
0.00271132
0.00275009
0.00278832
0.00282559
0.00286147
0.00289557
0.00292753
0.00295708
0.00298402
0.00300823
0.00302969
0.0030485
0.00306481
0.00307887
0.00309096
0.0031014
0.00311051
0.00311861
0.00312596
0.00313279
0.00313927
0.0031455
0.00315153
0.00315735
0.00316287
0.00316801
0.0031726
0.00317649
0.00317951
0.00318148
0.00318226
0.00318171
0.00317976
0.00317633
0.0031714
0.0031649
0.00315684
0.00314718
0.00313579
0.00312246
0.00310694
0.00308897
0.0030683
0.0030447
0.003018
0.00298814
0.00295514
0.00291912
0.00288035
0.00283922
0.00279619
0.00275187
0.00270689
0.00266195
0.00261773
0.00257489
0.00253402
0.0024956
0.00246
0.00242745
0.00239803
0.0023717
0.00234834
0.00232805
0.00231037
0.00229481
0.00228089
0.00226815
0.00225619
0.00224466
0.00223327
0.00222179
0.00221005
0.00219795
0.00218544
0.00217251
0.00215923
0.00214566
0.00213193
0.00211817
0.0021045
0.00209108
0.00207802
0.00206544
0.00205341
0.00204199
0.0020312
0.00202102
0.00201139
0.0020022
0.0019933
0.0019845
0.00197555
0.00196615
0.00195596
0.00194459
0.00193164
0.00191666
0.00189923
0.00187895
0.00185545
0.0018284
0.00179756
0.00176329
0.00172614
0.0016864
0.00164445
0.0016007
0.0015556
0.00150954
0.00146284
0.00141566
0.00136804
0.00131986
0.00127091
0.001221
0.00116993
0.0011176
0.00106399
0.00100906
0.000952797
0.000895668
0.000838704
0.000782809
0.000728829
0.000677567
0.000629799
0.000586293
0.000548097
6.40413e-05
0.000451579
0.000803855
0.00104093
0.00120058
0.00131442
0.00140454
0.00148511
0.00156373
0.00164297
0.0017224
0.00180014
0.00187399
0.00194197
0.00200264
0.0020551
0.00209897
0.00213431
0.00216151
0.00218119
0.00219413
0.00220124
0.00220348
0.00220182
0.00219723
0.00219062
0.00218284
0.00217466
0.00216676
0.00215971
0.00215401
0.00215006
0.00214818
0.00214861
0.00215154
0.00215707
0.00216526
0.00217614
0.00218965
0.00220574
0.00222469
0.00224656
0.00227131
0.00229886
0.00232909
0.00236189
0.00239709
0.00243453
0.002474
0.00251525
0.00255798
0.00260183
0.0026464
0.00269123
0.00273581
0.00277962