/*--------------------------------*- C++ -*----------------------------------*\
  =========                 |
  \\      /  F ield         | OpenFOAM: The Open Source CFD Toolbox
   \\    /   O peration     | Website:  https://openfoam.org
    \\  /    A nd           | Version:  9
     \\/     M anipulation  |
\*---------------------------------------------------------------------------*/
FoamFile
{
    format      ascii;
    class       volScalarField;
    location    "0.12";
    object      p;
}
// * * * * * * * * * * * * * * * * * * * * * * * * * * * * * * * * * * * * * //

dimensions      [0 2 -2 0 0 0 0];

internalField   nonuniform List<scalar> 
12225
(
0.422663
0.0755526
-0.000619768
0.012536
0.0379522
0.078961
0.137655
0.209943
0.292134
0.381475
0.475049
0.569024
0.658633
0.738698
0.806228
0.856027
0.88369
0.809836
-0.0726985
-0.00848889
0.00166112
0.0184645
0.0431898
0.082459
0.139409
0.210765
0.293087
0.383614
0.479239
0.575741
0.667779
0.749354
0.816858
0.862944
0.889533
0.845299
-0.0381766
0.0142354
0.0113157
0.0246506
0.0487283
0.0860636
0.140631
0.210392
0.292349
0.383769
0.481433
0.580965
0.676809
0.762454
0.833701
0.882403
0.924898
0.899938
-0.00806326
0.0189125
0.0141637
0.0280014
0.0518844
0.0876113
0.139872
0.207731
0.288717
0.380254
0.479227
0.58149
0.681825
0.773923
0.85371
0.914836
0.982769
0.973364
-0.0098674
0.00955316
0.0118553
0.0279065
0.0518321
0.0864333
0.13676
0.202729
0.282385
0.373404
0.47296
0.577423
0.682331
0.782192
0.873629
0.952588
1.04756
1.06231
-0.0197254
-0.00190112
0.0067439
0.024535
0.0485976
0.0824642
0.131208
0.195391
0.273528
0.363594
0.463156
0.569247
0.67838
0.786237
0.890398
0.988826
1.10815
1.1549
-0.029115
-0.0133931
-0.00102849
0.0179112
0.0421921
0.0756006
0.12304
0.185537
0.262025
0.350799
0.449856
0.556923
0.669528
0.784641
0.900815
1.01746
1.15642
1.2364
-0.0390602
-0.0261364
-0.0117628
0.00797722
0.0325165
0.0656496
0.111991
0.172873
0.24759
0.334761
0.432806
0.540097
0.655061
0.775847
0.901849
1.03337
1.18632
1.29516
-0.0510917
-0.0408534
-0.0255394
-0.00532569
0.0194257
0.0523697
0.0977364
0.157016
0.229814
0.315059
0.411555
0.518209
0.634135
0.758391
0.890963
1.03262
1.19377
1.32407
-0.0658232
-0.0578249
-0.0423827
-0.0220777
0.00274096
0.0354677
0.0798733
0.137481
0.20815
0.291092
0.385436
0.49048
0.605775
0.730933
0.866213
1.01248
1.17602
1.31924
-0.0835442
-0.0773195
-0.0623599
-0.0423621
-0.0177137
0.0146402
0.0579696
0.11373
0.181967
0.262141
0.353641
0.456006
0.568982
0.692383
0.826406
0.971631
1.13167
1.27921
-0.102856
-0.0978605
-0.0837274
-0.0643587
-0.0401565
-0.00840623
0.033696
0.0874748
0.153093
0.230201
0.318358
0.417213
0.526518
0.646026
0.77564
0.915356
1.06717
1.211
-0.124915
-0.120756
-0.107754
-0.0893283
-0.0658817
-0.0350582
0.00549917
0.0569522
0.119537
0.193057
0.277193
0.371628
0.476009
0.589892
0.712772
0.844056
0.983977
1.11922
-0.154007
-0.15051
-0.139018
-0.122045
-0.0999326
-0.0707226
-0.03252
0.0156336
0.0740174
0.142572
0.221082
0.3092
0.406408
0.511967
0.624889
0.743854
0.867568
0.988091
-0.192352
-0.189412
-0.179775
-0.164946
-0.145082
-0.118607
-0.0840746
-0.0407501
0.0116608
0.0732194
0.143779
0.222963
0.310103
0.404229
0.503985
0.607458
0.712184
0.812638
-0.242679
-0.240278
-0.23289
-0.221158
-0.20492
-0.182918
-0.154107
-0.117962
-0.0741902
-0.0226434
0.0365934
0.103128
0.176265
0.255002
0.337912
0.422861
0.506625
0.583861
-0.3081
-0.306357
-0.301789
-0.294474
-0.283838
-0.268844
-0.248783
-0.223304
-0.192114
-0.155014
-0.112062
-0.0636675
-0.0104502
0.0468348
0.106973
0.167937
0.226278
0.276466
-0.391521
-0.390754
-0.389922
-0.388828
-0.38647
-0.381942
-0.374847
-0.365009
-0.352155
-0.336064
-0.316724
-0.294852
-0.271366
-0.246159
-0.220418
-0.195857
-0.175665
-0.164626
-0.493882
-0.494721
-0.499049
-0.50651
-0.515695
-0.52589
-0.537083
-0.549372
-0.562826
-0.577478
-0.593611
-0.61156
-0.632051
-0.656934
-0.687348
-0.725137
-0.773504
-0.83643
-0.584445
-0.586832
-0.596314
-0.612171
-0.63248
-0.656677
-0.685029
-0.717868
-0.755386
-0.797753
-0.845422
-0.899305
-0.960824
-1.03184
-1.11442
-1.21107
-1.32539
-1.46121
-0.647857
-0.651407
-0.664959
-0.687137
-0.715515
-0.749781
-0.79057
-0.838274
-0.89304
-0.955017
-1.02468
-1.10305
-1.19168
-1.29251
-1.40779
-1.54011
-1.69293
-1.86976
-0.694588
-0.699221
-0.716418
-0.743715
-0.778279
-0.820288
-0.870611
-0.929632
-0.997255
-1.07342
-1.15845
-1.25327
-1.35932
-1.47843
-1.61265
-1.76433
-1.93645
-2.132
-0.727478
-0.733027
-0.753531
-0.784873
-0.823977
-0.871768
-0.929382
-0.996921
-1.07395
-1.16015
-1.25567
-1.36126
-1.47822
-1.60812
-1.7527
-1.91381
-2.09376
-2.29484
-0.749382
-0.755502
-0.779018
-0.813479
-0.855859
-0.908082
-0.97134
-1.04531
-1.12921
-1.2225
-1.32521
-1.43797
-1.5619
-1.69831
-1.84858
-2.01403
-2.19622
-2.39672
-0.762385
-0.768717
-0.795187
-0.832071
-0.876925
-0.932798
-1.00058
-1.07942
-1.16831
-1.26667
-1.37447
-1.49232
-1.62116
-1.76206
-1.91604
-2.08393
-2.26664
-2.46503
-0.767278
-0.773152
-0.803618
-0.842826
-0.88987
-0.949077
-1.0206
-1.10307
-1.19551
-1.29747
-1.40905
-1.53084
-1.66365
-1.80829
-1.96542
-2.13551
-2.31891
-2.5159
-0.768987
-0.768377
-0.805289
-0.847757
-0.89729
-0.959739
-1.03431
-1.11931
-1.21407
-1.31852
-1.43298
-1.55806
-1.69442
-1.84259
-2.00292
-2.17558
-2.36055
-2.55769
-0.795332
-0.758833
-0.802052
-0.849215
-0.901968
-0.967438
-1.04409
-1.13043
-1.22641
-1.33244
-1.4491
-1.577
-1.71659
-1.86816
-2.03179
-2.20745
-2.39493
-2.59384
-0.864804
-0.803153
-0.810813
-0.850693
-0.90588
-0.973876
-1.05139
-1.13784
-1.2341
-1.34104
-1.45935
-1.58952
-1.73183
-1.88637
-2.0531
-2.23189
-2.42248
-2.62438
-0.375762
-0.683916
-0.800039
-0.848595
-0.906811
-0.977371
-1.05562
-1.14197
-1.2383
-1.34589
-1.46548
-1.59741
-1.74182
-1.89872
-2.06805
-2.24967
-2.44328
-2.64836
0.435747
0.430045
0.298614
0.081519
-0.158761
-0.3805
-0.558067
-0.674408
-0.73753
-0.755357
-0.743469
-0.718407
-0.695779
-0.687704
-0.700701
-0.736637
-0.79689
-0.884705
-1.00704
-1.17563
-1.40357
-1.70089
-2.07238
-2.51645
-3.02555
-3.58747
-4.18717
-4.8085
-5.43579
-6.05491
-6.65396
-7.22342
-7.75613
-8.24695
-8.69251
-9.09086
-9.44123
-9.74415
-10.0009
-10.2121
-10.3772
-10.495
-10.5615
-10.582
-10.5603
-10.4997
-10.4031
-10.2733
-10.1131
-9.92539
-9.71303
-9.47899
-9.22624
-8.95772
-8.67631
-8.38483
-8.08598
-7.78233
-7.4763
-7.17014
-6.86594
-6.56557
-6.27073
-5.98293
-5.7035
-5.43356
-5.17408
-4.92586
-4.68955
-4.46563
-4.25448
-4.05634
-3.87135
-3.69957
-3.54096
-3.39544
-3.26286
-3.14301
-3.03567
-2.94055
-2.85733
-2.78565
-2.72512
-2.67531
-2.63573
-2.60592
-2.58534
-2.57347
-2.56978
-2.57378
-2.585
-2.60301
-2.62619
-2.65465
-2.68806
-2.72594
-2.76775
-2.81302
-2.86127
-2.91201
-2.96411
-3.01716
-3.07063
-3.12392
-3.17637
-3.22731
-3.27603
-3.32179
-3.36382
-3.40136
-3.43361
-3.45978
-3.47911
-3.49087
-3.49435
-3.48893
-3.47408
-3.44933
-3.41433
-3.36886
-3.31282
-3.24621
-3.16919
-3.08202
-2.98509
-2.87889
-2.76401
-2.64111
-2.51094
-2.3743
-2.23203
-2.08501
-1.93412
-1.78029
-1.62444
-1.46749
-1.31036
-1.15398
-0.99928
-0.847181
-0.698654
-0.554633
-0.416052
-0.284063
-0.15953
-0.0432747
0.0633848
0.159289
0.243772
0.316401
0.375341
0.419429
0.458011
0.487677
0.490966
0.475724
0.446691
0.416649
0.386093
0.340875
0.29864
0.235822
0.145568
0.0820148
0.0368713
-0.0146728
-0.0583334
-0.0939124
-0.125283
-0.147439
-0.15965
-0.162509
-0.156561
-0.141463
-0.117591
-0.0861058
-0.0482913
-0.00603305
0.0418691
0.0872766
0.0213072
0.0185728
-0.145957
-0.367691
-0.579047
-0.759453
-0.898855
-0.989271
-1.00562
-0.951574
-0.846786
-0.721214
-0.605017
-0.518657
-0.474679
-0.479402
-0.533074
-0.631174
-0.771952
-0.967732
-1.23641
-1.58949
-2.02884
-2.54693
-3.12911
-3.75674
-4.4102
-5.07122
-5.72421
-6.35666
-6.95913
-7.52483
-8.04913
-8.52897
-8.96238
-9.34819
-9.68568
-9.97445
-10.2143
-10.4056
-10.55
-10.6491
-10.71
-10.7313
-10.713
-10.6566
-10.564
-10.4377
-10.2801
-10.0941
-9.88244
-9.64806
-9.39391
-9.12296
-8.83814
-8.54231
-8.23823
-7.92854
-7.61576
-7.30223
-6.9901
-6.68138
-6.37784
-6.08111
-5.7926
-5.51354
-5.24501
-4.98791
-4.74296
-4.51077
-4.2918
-4.08637
-3.8947
-3.7169
-3.55298
-3.40285
-3.26635
-3.14326
-3.03327
-2.93604
-2.85118
-2.77826
-2.71682
-2.66638
-2.62644
-2.59646
-2.57591
-2.56422
-2.56084
-2.56516
-2.57658
-2.59441
-2.61886
-2.64877
-2.68348
-2.72247
-2.76522
-2.81124
-2.85992
-2.91056
-2.96301
-3.01656
-3.07059
-3.12449
-3.17761
-3.22928
-3.2788
-3.32543
-3.36842
-3.40699
-3.44036
-3.46774
-3.48836
-3.50147
-3.50639
-3.50248
-3.48917
-3.46602
-3.43266
-3.38885
-3.33446
-3.26952
-3.19414
-3.1086
-3.01325
-2.9086
-2.79521
-2.67376
-2.54499
-2.40968
-2.26869
-2.12288
-1.97317
-1.82046
-1.66569
-1.50977
-1.35363
-1.19822
-1.04444
-0.893233
-0.745572
-0.602449
-0.464803
-0.333509
-0.209504
-0.0938388
0.0128892
0.109702
0.195109
0.268495
0.32877
0.380552
0.417126
0.433711
0.440235
0.436358
0.426532
0.400832
0.359715
0.31438
0.254793
0.197298
0.153574
0.0967775
0.0359655
-0.0141616
-0.0604614
-0.0993166
-0.1286
-0.148287
-0.158712
-0.15987
-0.152193
-0.136331
-0.112977
-0.0829346
-0.046947
-0.0065469
0.0395074
0.0820218
-0.194514
-0.238336
-0.404468
-0.587687
-0.750186
-0.879873
-0.96827
-1.00945
-0.999411
-0.940825
-0.845021
-0.731677
-0.625624
-0.550078
-0.520911
-0.549498
-0.645958
-0.817326
-1.06556
-1.38844
-1.78056
-2.23393
-2.7385
-3.28289
-3.85535
-4.44458
-5.04027
-5.63336
-6.21608
-6.78184
-7.325
-7.8408
-8.3252
-8.77486
-9.18698
-9.55931
-9.89007
-10.1778
-10.421
-10.6188
-10.7712
-10.8791
-10.9447
-10.9689
-10.9529
-10.8981
-10.8066
-10.6805
-10.5222
-10.3345
-10.1201
-9.88193
-9.62294
-9.34614
-9.05451
-8.75098
-8.43839
-8.11949
-7.79686
-7.47296
-7.15005
-6.83023
-6.51538
-6.20723
-5.90728
-5.61687
-5.33714
-5.06907
-4.81347
-4.57101
-4.34219
-4.12742
-3.92696
-3.74097
-3.56952
-3.41257
-3.27
-3.14162
-3.02715
-2.92624
-2.83847
-2.76339
-2.70046
-2.64914
-2.60884
-2.57894
-2.55883
-2.54786
-2.54538
-2.55072
-2.56321
-2.58226
-2.60752
-2.63832
-2.67401
-2.71403
-2.75783
-2.80487
-2.85462
-2.90649
-2.96002
-3.01464
-3.06977
-3.12483
-3.17917
-3.23214
-3.28303
-3.33113
-3.37567
-3.41588
-3.45097
-3.48014
-3.50263
-3.51768
-3.52457
-3.52267
-3.5114
-3.49028
-3.45895
-3.41714
-3.36473
-3.3017
-3.22819
-3.14443
-3.0508
-2.94778
-2.83594
-2.71595
-2.58855
-2.45453
-2.31474
-2.17007
-2.02143
-1.86973
-1.71592
-1.56091
-1.40566
-1.25108
-1.09811
-0.947678
-0.800739
-0.658256
-0.521158
-0.390311
-0.266614
-0.151013
-0.0442236
0.0527004
0.138551
0.212931
0.275068
0.326672
0.366413
0.387425
0.394354
0.392371
0.382418
0.361073
0.324929
0.281585
0.228165
0.173582
0.126576
0.0741216
0.0185467
-0.0307042
-0.074584
-0.111501
-0.13858
-0.157699
-0.167735
-0.168432
-0.160208
-0.143713
-0.119552
-0.0886159
-0.0518918
-0.0111646
0.0340589
0.0736711
0.119533
-0.0387421
-0.224157
-0.397873
-0.54746
-0.66758
-0.753091
-0.801184
-0.814068
-0.799216
-0.768822
-0.739396
-0.729835
-0.758038
-0.838016
-0.979186
-1.18598
-1.45761
-1.78883
-2.17182
-2.59826
-3.06048
-3.55164
-4.0655
-4.59605
-5.13739
-5.68354
-6.22862
-6.76683
-7.29263
-7.80082
-8.28659
-8.74558
-9.17391
-9.5682
-9.92558
-10.2437
-10.5208
-10.7553
-10.9463
-11.0937
-11.1977
-11.2589
-11.278
-11.2563
-11.1952
-11.0965
-10.9625
-10.7956
-10.5984
-10.3739
-10.1249
-9.85448
-9.56578
-9.26185
-8.94573
-8.62037
-8.28861
-7.95315
-7.61653
-7.28112
-6.94908
-6.6224
-6.30283
-5.99195
-5.69113
-5.40154
-5.12416
-4.85983
-4.60917
-4.3727
-4.15079
-3.94367
-3.75149
-3.5743
-3.41207
-3.26468
-3.13195
-3.01364
-2.90943
-2.81893
-2.74169
-2.67718
-2.62484
-2.58404
-2.55413
-2.5344
-2.52417
-2.52272
-2.52933
-2.5433
-2.56399
-2.5908
-2.62311
-2.6603
-2.70179
-2.74703
-2.79548
-2.84663
-2.89999
-2.95505
-3.01127
-3.06807
-3.12485
-3.18098
-3.23583
-3.28868
-3.33882
-3.38548
-3.42789
-3.46524
-3.49672
-3.52154
-3.53892
-3.54815
-3.54855
-3.53954
-3.52061
-3.49138
-3.45158
-3.40107
-3.33982
-3.26795
-3.18572
-3.09348
-2.99171
-2.88101
-2.76203
-2.63553
-2.50231
-2.36323
-2.21918
-2.07109
-1.91989
-1.76652
-1.61191
-1.45702
-1.30278
-1.15011
-0.999958
-0.853254
-0.710935
-0.573919
-0.443097
-0.319361
-0.203574
-0.096542
0.000696783
0.0871308
0.16241
0.225915
0.277697
0.317651
0.341679
0.351775
0.351628
0.34183
0.321624
0.289127
0.248334
0.200092
0.149051
0.10052
0.0501025
-0.00135002
-0.0483676
-0.0900656
-0.125169
-0.151934
-0.170466
-0.180058
-0.180403
-0.171768
-0.154628
-0.12957
-0.0975698
-0.0598116
-0.0183059
0.0264125
0.0655533
0.962697
0.684687
0.422302
0.210751
0.0390699
-0.105166
-0.225916
-0.327683
-0.417038
-0.502054
-0.592592
-0.700104
-0.836101
-1.01002
-1.22764
-1.49061
-1.79713
-2.14325
-2.52441
-2.93624
-3.3748
-3.83637
-4.31724
-4.81358
-5.32134
-5.83627
-6.35397
-6.86988
-7.37938
-7.87783
-8.36068
-8.82349
-9.26203
-9.67236
-10.0509
-10.3944
-10.7002
-10.966
-11.1899
-11.3708
-11.508
-11.6015
-11.6514
-11.6585
-11.6238
-11.549
-11.4359
-11.2866
-11.1038
-10.8901
-10.6486
-10.3822
-10.0943
-9.78799
-9.46649
-9.13298
-8.79054
-8.44212
-8.09053
-7.73841
-7.38819
-7.04212
-6.70221
-6.37029
-6.04793
-5.73652
-5.43722
-5.151
-4.87865
-4.62078
-4.37784
-4.15015
-3.93788
-3.74114
-3.5599
-3.39409
-3.24355
-3.10808
-2.98741
-2.88122
-2.78912
-2.71066
-2.64534
-2.59258
-2.55175
-2.52217
-2.50312
-2.49385
-2.4936
-2.50163
-2.51722
-2.53966
-2.56827
-2.60242
-2.64148
-2.68487
-2.73203
-2.78244
-2.83557
-2.89093
-2.94804
-3.00634
-3.06529
-3.1243
-3.18275
-3.23999
-3.29532
-3.34802
-3.39732
-3.44241
-3.48247
-3.51667
-3.5442
-3.56425
-3.57608
-3.57898
-3.57235
-3.55567
-3.52854
-3.49066
-3.44189
-3.38221
-3.31173
-3.23071
-3.1395
-3.03861
-2.92863
-2.81024
-2.6842
-2.55134
-2.41252
-2.26866
-2.1207
-1.96956
-1.81622
-1.66161
-1.5067
-1.35241
-1.19968
-1.04943
-0.902605
-0.760109
-0.622854
-0.491729
-0.367623
-0.25138
-0.143826
-0.0459671
0.0412872
0.117473
0.182014
0.234581
0.274898
0.300908
0.313718
0.315392
0.306656
0.287491
0.257451
0.219065
0.174017
0.125691
0.0775575
0.0284269
-0.0205347
-0.0657877
-0.106069
-0.140004
-0.166134
-0.184013
-0.193085
-0.193016
-0.183915
-0.166169
-0.140374
-0.107502
-0.0688291
-0.0264418
0.0181999
0.0588631
2.06408
1.6947
1.32437
1.04358
0.820777
0.623255
0.433857
0.24123
0.0367046
-0.185415
-0.428596
-0.695099
-0.986354
-1.30286
-1.64418
-2.00911
-2.39605
-2.80325
-3.22891
-3.67127
-4.12857
-4.59899
-5.08056
-5.57112
-6.06823
-6.56909
-7.07056
-7.56912
-8.06096
-8.54202
-9.00811
-9.45499
-9.87849
-10.2746
-10.6396
-10.9701
-11.2631
-11.516
-11.7268
-11.8942
-12.0171
-12.0953
-12.129
-12.1187
-12.0656
-11.9712
-11.8376
-11.667
-11.4622
-11.226
-10.9616
-10.6722
-10.3611
-10.0319
-9.68778
-9.33215
-8.96822
-8.59907
-8.22762
-7.85659
-7.48851
-7.12568
-6.77017
-6.42381
-6.08821
-5.76473
-5.45454
-5.15857
-4.87758
-4.61212
-4.36259
-4.12925
-3.9122
-3.71146
-3.52695
-3.3585
-3.20588
-3.06882
-2.94698
-2.83998
-2.74741
-2.66879
-2.60359
-2.55122
-2.51106
-2.48241
-2.46454
-2.45667
-2.45805
-2.4679
-2.48545
-2.50997
-2.54075
-2.57712
-2.61845
-2.66414
-2.71363
-2.76639
-2.82192
-2.87972
-2.9393
-3.00014
-3.06169
-3.12339
-3.18462
-3.24475
-3.30305
-3.3588
-3.41121
-3.45945
-3.50268
-3.54004
-3.57067
-3.59373
-3.60845
-3.61409
-3.61001
-3.59569
-3.57069
-3.53471
-3.48761
-3.42936
-3.36008
-3.28003
-3.1896
-3.08929
-2.97971
-2.86157
-2.73565
-2.6028
-2.46389
-2.31988
-2.17169
-2.02031
-1.86668
-1.71178
-1.55655
-1.40194
-1.24888
-1.09829
-0.951095
-0.808192
-0.670476
-0.538829
-0.414127
-0.29722
-0.188942
-0.0902467
-0.00199264
0.0752545
0.140893
0.19453
0.235784
0.2636
0.278583
0.281999
0.274642
0.256841
0.228861
0.192645
0.150022
0.103748
0.0564745
0.00854783
-0.0386202
-0.0825013
-0.121624
-0.154519
-0.179872
-0.197077
-0.205603
-0.205099
-0.195551
-0.177285
-0.15087
-0.117234
-0.0777078
-0.0343379
0.0106327
0.0536237
3.0725
2.63602
2.16862
1.81267
1.52505
1.25403
0.974826
0.673747
0.343672
-0.0159966
-0.401227
-0.80627
-1.22583
-1.65605
-2.09459
-2.54031
-2.99275
-3.45182
-3.9175
-4.38974
-4.86842
-5.3532
-5.84344
-6.33815
-6.83582
-7.33448
-7.83162
-8.32426
-8.80901
-9.28214
-9.73966
-10.1775
-10.5914
-10.9775
-11.3319
-11.6511
-11.9319
-12.1715
-12.3679
-12.5195
-12.6252
-12.6845
-12.6977
-12.6654
-12.5887
-12.4695
-12.3098
-12.1121
-11.8794
-11.6148
-11.3216
-11.0033
-10.6636
-10.306
-9.9341
-9.55142
-9.16136
-8.76712
-8.37177
-7.97812
-7.58878
-7.20611
-6.83222
-6.46896
-6.11794
-5.78053
-5.45786
-5.15083
-4.86014
-4.58631
-4.32965
-4.09036
-3.86847
-3.66389
-3.47646
-3.30591
-3.15191
-3.01409
-2.89201
-2.78521
-2.69319
-2.61542
-2.55132
-2.50026
-2.4616
-2.43463
-2.41861
-2.41277
-2.41633
-2.4285
-2.44849
-2.47553
-2.50891
-2.54793
-2.59194
-2.64035
-2.69258
-2.74811
-2.80643
-2.86705
-2.92949
-2.99325
-3.0578
-3.12259
-3.18702
-3.25044
-3.31214
-3.37137
-3.42732
-3.47913
-3.52594
-3.56684
-3.60093
-3.62734
-3.64523
-3.65385
-3.65251
-3.64066
-3.61786
-3.5838
-3.53831
-3.48139
-3.41316
-3.3339
-3.24401
-3.14403
-3.03458
-2.9164
-2.79029
-2.65713
-2.51783
-2.37335
-2.22466
-2.07273
-1.91855
-1.76308
-1.6073
-1.45214
-1.29853
-1.14739
-0.999631
-0.856135
-0.717783
-0.585445
-0.459985
-0.342251
-0.233084
-0.133388
-0.0439904
0.0344801
0.101411
0.156341
0.198895
0.228487
0.24548
0.250708
0.244919
0.228667
0.202594
0.168364
0.127816
0.0833238
0.037159
-0.00956627
-0.0552874
-0.0979293
-0.135929
-0.167815
-0.192361
-0.208856
-0.216781
-0.215795
-0.205809
-0.187084
-0.160148
-0.12588
-0.0856296
-0.0413362
0.00412124
0.0493992
3.74951
3.2681
2.73206
2.31109
1.95582
1.6074
1.23922
0.839041
0.40329
-0.0639333
-0.55396
-1.0574
-1.5667
-2.07696
-2.58564
-3.09187
-3.59583
-4.09827
-4.60019
-5.10255
-5.60615
-6.11143
-6.61837
-7.12648
-7.63467
-8.14134
-8.64427
-9.14077
-9.62766
-10.1013
-10.558
-10.9934
-11.4036
-11.7843
-12.1317
-12.442
-12.7119
-12.9387
-13.1199
-13.254
-13.3399
-13.3772
-13.3659
-13.3069
-13.2017
-13.052
-12.8604
-12.6296
-12.3628
-12.0635
-11.7353
-11.382
-11.0076
-10.6158
-10.2106
-9.79557
-9.3744
-8.95044
-8.52687
-8.10663
-7.6924
-7.2866
-6.89137
-6.50859
-6.13985
-5.7865
-5.44963
-5.1301
-4.82856
-4.54544
-4.28099
-4.03531
-3.80833
-3.59989
-3.4097
-3.23738
-3.08249
-2.94452
-2.82295
-2.71718
-2.62662
-2.55064
-2.48858
-2.43977
-2.4035
-2.37906
-2.36568
-2.36259
-2.36899
-2.38407
-2.40704
-2.43713
-2.47359
-2.51573
-2.56288
-2.61444
-2.66984
-2.72854
-2.79004
-2.85387
-2.91954
-2.98658
-3.05449
-3.12271
-3.19067
-3.25772
-3.32315
-3.3862
-3.44603
-3.50176
-3.55247
-3.59722
-3.63507
-3.66509
-3.6864
-3.69818
-3.69974
-3.69047
-3.66992
-3.63777
-3.59385
-3.53816
-3.47085
-3.39219
-3.30264
-3.20273
-3.09315
-2.97464
-2.84806
-2.7143
-2.57431
-2.42907
-2.27958
-2.12683
-1.97183
-1.81556
-1.65898
-1.50306
-1.3487
-1.19683
-1.04833
-0.904079
-0.76494
-0.631768
-0.505412
-0.386713
-0.27651
-0.175669
-0.0849951
-0.00515216
0.0632398
0.119675
0.163792
0.195227
0.21421
0.221335
0.217288
0.202743
0.17855
0.146228
0.107578
0.0647489
0.0198297
-0.0256779
-0.0700996
-0.111555
-0.148457
-0.179354
-0.203062
-0.218808
-0.226074
-0.224537
-0.214092
-0.194942
-0.167581
-0.132839
-0.0920634
-0.0470611
-0.00117625
0.0459447
3.98331
3.47787
2.91067
2.44646
2.03731
1.62645
1.18973
0.718025
0.210965
-0.325011
-0.879981
-1.44411
-2.00979
-2.57219
-3.12887
-3.67913
-4.22338
-4.76266
-5.29824
-5.83134
-6.36294
-6.89366
-7.42364
-7.95249
-8.47928
-9.00246
-9.51994
-10.029
-10.5266
-11.009
-11.4723
-11.9123
-12.3246
-12.7051
-13.0494
-13.3538
-13.6147
-13.8292
-13.9948
-14.1099
-14.1735
-14.1851
-14.1452
-14.0546
-13.9152
-13.729
-13.499
-13.2283
-12.9205
-12.5795
-12.2093
-11.8143
-11.3985
-10.9662
-10.5216
-10.0685
-9.61088
-9.15221
-8.69583
-8.2448
-7.80186
-7.36948
-6.94984
-6.54481
-6.15596
-5.78462
-5.43181
-5.09833
-4.78474
-4.49139
-4.21845
-3.96589
-3.73355
-3.52114
-3.32824
-3.15437
-2.99894
-2.86132
-2.74085
-2.63681
-2.54848
-2.47511
-2.41597
-2.37029
-2.33731
-2.31625
-2.30633
-2.30676
-2.31672
-2.33538
-2.36195
-2.39565
-2.43574
-2.48151
-2.53229
-2.58746
-2.64646
-2.70875
-2.77384
-2.84125
-2.91052
-2.98118
-3.05275
-3.12471
-3.19648
-3.26742
-3.33684
-3.40395
-3.4679
-3.52777
-3.58261
-3.63142
-3.67322
-3.70704
-3.73192
-3.74701
-3.75157
-3.74495
-3.72668
-3.69642
-3.65402
-3.59947
-3.53293
-3.45472
-3.36529
-3.26524
-3.15526
-3.03617
-2.90882
-2.77417
-2.63319
-2.4869
-2.33632
-2.18248
-2.0264
-1.86907
-1.71147
-1.55456
-1.39927
-1.24648
-1.09708
-0.951933
-0.811875
-0.677745
-0.550375
-0.430595
-0.319229
-0.217118
-0.125045
-0.0436973
0.0263026
0.08443
0.130314
0.163703
0.184737
0.193873
0.191736
0.179055
0.156785
0.126368
0.0895505
0.0483455
0.00475756
-0.0395053
-0.0826888
-0.122992
-0.158818
-0.188735
-0.211579
-0.226545
-0.233109
-0.230973
-0.22005
-0.200504
-0.172807
-0.137752
-0.0966715
-0.0512459
-0.00511347
0.0432461
3.77378
3.27619
2.71185
2.2295
1.78874
1.33969
0.862084
0.349754
-0.195803
-0.767676
-1.35648
-1.95325
-2.55106
-3.14548
-3.73423
-4.31662
-4.89295
-5.46412
-6.03122
-6.59527
-7.15709
-7.71715
-8.27546
-8.8315
-9.38422
-9.93196
-10.4725
-11.0029
-11.5198
-12.0194
-12.4973
-12.9492
-13.3703
-13.756
-14.1019
-14.4037
-14.6577
-14.8606
-15.0101
-15.1045
-15.1429
-15.125
-15.0514
-14.9235
-14.7433
-14.5136
-14.2376
-13.9192
-13.5624
-13.1717
-12.7517
-12.3071
-11.8425
-11.3625
-10.8717
-10.3743
-9.87431
-9.37553
-8.8814
-8.39509
-7.9194
-7.45685
-7.0096
-6.57951
-6.16812
-5.77669
-5.40617
-5.05728
-4.73046
-4.42597
-4.14383
-3.88391
-3.64592
-3.4294
-3.23383
-3.05856
-2.90288
-2.766
-2.64712
-2.54539
-2.45995
-2.38994
-2.33448
-2.29274
-2.26386
-2.247
-2.24136
-2.24608
-2.26032
-2.28325
-2.31407
-2.35199
-2.39628
-2.44621
-2.50111
-2.56038
-2.62342
-2.68973
-2.7588
-2.83016
-2.90338
-2.97798
-3.05351
-3.12946
-3.20527
-3.28031
-3.35389
-3.42522
-3.49343
-3.55759
-3.61667
-3.66966
-3.71551
-3.7532
-3.78174
-3.80021
-3.80781
-3.80388
-3.78789
-3.75951
-3.71857
-3.66507
-3.59919
-3.52127
-3.4318
-3.3314
-3.22081
-3.10087
-2.97249
-2.83667
-2.69441
-2.54677
-2.39481
-2.23959
-2.08214
-1.92349
-1.76463
-1.60652
-1.45008
-1.2962
-1.14574
-0.99955
-0.858446
-0.723245
-0.594756
-0.47379
-0.361157
-0.257668
-0.164094
-0.0811283
-0.00939596
0.0505744
0.0983966
0.133861
0.157055
0.168337
0.16828
0.15763
0.137379
0.10892
0.0739463
0.0343844
-0.00780025
-0.0507834
-0.0927504
-0.131922
-0.166692
-0.195638
-0.217605
-0.231776
-0.237625
-0.234877
-0.223476
-0.203577
-0.175642
-0.140438
-0.0992783
-0.0537411
-0.00760908
0.0413409
3.21134
2.7433
2.20571
1.72699
1.27634
0.812178
0.318032
-0.210139
-0.769967
-1.35492
-1.95673
-2.56766
-3.18173
-3.79502
-4.40539
-5.01206
-5.61508
-6.21498
-6.81249
-7.40829
-8.00284
-8.5963
-9.18837
-9.77824
-10.3645
-10.9453
-11.5178
-12.0788
-12.6246
-13.1507
-13.6523
-14.1244
-14.5617
-14.9591
-15.3116
-15.6146
-15.864
-16.0563
-16.1889
-16.2605
-16.2702
-16.218
-16.1049
-15.9327
-15.704
-15.4223
-15.0915
-14.716
-14.3009
-13.8511
-13.3719
-12.8687
-12.3467
-11.8109
-11.2663
-10.7175
-10.1686
-9.62378
-9.08653
-8.56011
-8.04738
-7.55084
-7.07265
-6.6146
-6.17817
-5.76452
-5.37451
-5.00873
-4.66751
-4.35095
-4.05895
-3.79121
-3.54727
-3.32654
-3.12832
-2.9518
-2.79611
-2.66032
-2.54346
-2.44453
-2.36255
-2.29651
-2.24542
-2.20832
-2.18428
-2.17238
-2.17173
-2.18145
-2.20066
-2.22853
-2.26423
-2.30697
-2.35601
-2.41062
-2.47015
-2.53396
-2.6015
-2.67222
-2.74565
-2.82132
-2.8988
-2.97764
-3.05739
-3.13755
-3.21759
-3.29688
-3.37474
-3.45038
-3.52291
-3.59138
-3.65476
-3.71195
-3.76187
-3.80344
-3.83563
-3.85749
-3.86814
-3.86688
-3.85317
-3.82664
-3.78712
-3.73462
-3.66933
-3.5916
-3.50196
-3.40105
-3.28966
-3.16867
-3.03904
-2.90179
-2.75799
-2.60872
-2.45509
-2.29819
-2.13909
-1.97884
-1.81845
-1.65889
-1.50108
-1.3459
-1.1942
-1.04681
-0.90452
-0.768125
-0.638409
-0.516158
-0.40216
-0.2972
-0.202034
-0.117355
-0.043786
0.018145
0.0680456
0.105706
0.131179
0.144754
0.146953
0.138508
0.120413
0.0940152
0.0609542
0.0230976
-0.0176081
-0.0592686
-0.10002
-0.138075
-0.171812
-0.199807
-0.22091
-0.234297
-0.239446
-0.236107
-0.224262
-0.204079
-0.176022
-0.140844
-0.0998421
-0.0545168
-0.00867643
0.0402358
2.40795
1.98083
1.4833
1.02291
0.578242
0.115556
-0.378428
-0.906329
-1.46544
-2.04987
-2.65261
-3.26718
-3.88858
-4.51341
-5.1397
-5.76656
-6.39375
-7.02148
-7.65006
-8.27978
-8.91072
-9.54264
-10.1749
-10.8061
-11.4347
-12.0579
-12.6727
-13.275
-13.8604
-14.4237
-14.9593
-15.4612
-15.9234
-16.3399
-16.7052
-17.0139
-17.2614
-17.4439
-17.5589
-17.6052
-17.582
-17.4898
-17.3301
-17.1052
-16.8188
-16.4749
-16.0786
-15.6352
-15.1505
-14.6305
-14.0814
-13.5091
-12.9197
-12.3188
-11.7116
-11.1032
-10.4982
-9.90072
-9.31445
-8.74269
-8.18831
-7.65377
-7.14113
-6.65212
-6.18807
-5.75003
-5.33872
-4.95457
-4.59776
-4.26823
-3.96569
-3.68967
-3.43953
-3.21448
-3.01364
-2.83602
-2.68056
-2.54617
-2.43171
-2.33603
-2.25799
-2.19645
-2.1503
-2.11844
-2.09986
-2.09355
-2.09854
-2.11389
-2.13869
-2.17209
-2.21324
-2.26134
-2.31564
-2.37542
-2.44001
-2.50879
-2.5812
-2.6567
-2.73483
-2.81512
-2.89714
-2.98047
-3.06464
-3.1492
-3.2336
-3.31724
-3.39944
-3.4794
-3.55626
-3.62902
-3.69663
-3.75797
-3.8119
-3.8573
-3.89309
-3.91827
-3.93193
-3.93333
-3.92188
-3.8972
-3.85909
-3.80758
-3.74284
-3.66527
-3.57539
-3.47391
-3.36162
-3.23945
-3.1084
-2.96953
-2.82396
-2.67282
-2.51726
-2.35841
-2.19738
-2.03525
-1.87304
-1.71176
-1.55232
-1.39561
-1.24246
-1.09368
-0.950045
-0.812312
-0.68124
-0.557588
-0.442117
-0.335589
-0.23874
-0.152256
-0.0767584
-0.0127691
0.0393199
0.0792876
0.107156
0.123167
0.127793
0.121734
0.105961
0.0817648
0.0507317
0.014679
-0.0244598
-0.0647458
-0.104272
-0.141227
-0.173964
-0.201048
-0.221325
-0.233971
-0.238472
-0.234602
-0.222384
-0.202018
-0.17398
-0.139022
-0.0984273
-0.0536408
-0.00840687
0.039898
1.46487
1.08346
0.631766
0.197882
-0.231514
-0.683213
-1.16788
-1.68713
-2.23819
-2.8159
-3.41442
-4.02845
-4.65387
-5.28782
-5.92852
-6.57501
-7.22688
-7.88402
-8.54646
-9.21413
-9.88678
-10.5638
-11.244
-11.9258
-12.6067
-13.2836
-13.9524
-14.6084
-15.246
-15.8589
-16.4403
-16.9832
-17.4804
-17.9248
-18.3099
-18.6296
-18.8786
-19.0527
-19.1492
-19.1673
-19.1065
-18.9677
-18.7531
-18.4661
-18.111
-17.6933
-17.219
-16.6947
-16.1275
-15.5244
-14.8926
-14.2392
-13.5709
-12.8939
-12.2142
-11.5372
-10.8678
-10.2103
-9.56855
-8.94576
-8.34478
-7.76796
-7.21724
-6.69414
-6.19985
-5.73523
-5.30079
-4.8968
-4.52323
-4.17982
-3.86609
-3.58134
-3.32473
-3.09527
-2.89184
-2.71326
-2.55827
-2.42558
-2.31387
-2.22184
-2.14816
-2.09157
-2.05082
-2.02471
-2.01209
-2.01187
-2.02301
-2.0445
-2.0754
-2.11481
-2.16188
-2.21579
-2.27578
-2.34112
-2.41115
-2.48524
-2.56285
-2.64343
-2.72653
-2.81168
-2.89846
-2.98645
-3.07521
-3.16427
-3.25312
-3.34115
-3.42768
-3.51194
-3.59304
-3.66999
-3.74173
-3.80709
-3.86492
-3.91403
-3.9533
-3.98171
-3.99832
-4.00232
-3.99311
-3.97027
-3.93359
-3.88308
-3.81894
-3.74155
-3.65147
-3.54942
-3.43622
-3.31283
-3.1803
-3.03972
-2.89226
-2.73909
-2.58139
-2.42037
-2.25715
-2.09287
-1.92858
-1.7653
-1.60397
-1.44547
-1.29064
-1.14026
-0.995082
-0.855836
-0.723251
-0.598055
-0.480981
-0.372765
-0.274124
-0.185736
-0.108211
-0.0420689
0.0123032
0.0546791
0.0850483
0.103627
0.110838
0.107344
0.094071
0.0722471
0.0433933
0.0092752
-0.0281911
-0.0670395
-0.105325
-0.1412
-0.172984
-0.199221
-0.218746
-0.230728
-0.234669
-0.230369
-0.217892
-0.197481
-0.169632
-0.135109
-0.0951807
-0.0512547
-0.00694599
0.0402619
0.467596
0.13263
-0.272277
-0.676466
-1.08663
-1.52358
-1.99571
-2.50392
-3.04548
-3.61592
-4.21042
-4.8247
-5.45541
-6.10016
-6.75739
-7.42618
-8.10604
-8.79672
-9.49803
-10.2097
-10.9312
-11.6616
-12.3994
-13.1424
-13.8875
-14.6307
-15.3671
-16.0907
-16.7945
-17.471
-18.1118
-18.7082
-19.2517
-19.7339
-20.1468
-20.4837
-20.7382
-20.9057
-20.9835
-20.9707
-20.8674
-20.6752
-20.397
-20.0374
-19.6019
-19.0974
-18.5314
-17.9121
-17.2477
-16.5471
-15.8184
-15.0701
-14.3097
-13.5445
-12.781
-12.0252
-11.2822
-10.5565
-9.85208
-9.17208
-8.5192
-7.8956
-7.30299
-6.74264
-6.21549
-5.7221
-5.26277
-4.8375
-4.44603
-4.08786
-3.76228
-3.46838
-3.20506
-2.97108
-2.76511
-2.5857
-2.4314
-2.30069
-2.19206
-2.10401
-2.03506
-1.9838
-1.94883
-1.92884
-1.92257
-1.92883
-1.94649
-1.9745
-2.01186
-2.05764
-2.11097
-2.17102
-2.237
-2.30819
-2.38392
-2.46358
-2.5466
-2.63247
-2.72071
-2.81088
-2.90256
-2.99533
-3.08875
-3.18237
-3.27567
-3.36806
-3.45887
-3.54733
-3.63254
-3.71353
-3.7892
-3.85841
-3.91994
-3.97259
-4.0152
-4.0467
-4.06614
-4.07267
-4.06566
-4.04467
-4.00945
-3.96002
-3.89655
-3.81944
-3.72926
-3.62672
-3.5127
-3.38817
-3.2542
-3.11192
-2.96254
-2.80727
-2.64735
-2.484
-2.31843
-2.15179
-1.9852
-1.81967
-1.6562
-1.49567
-1.33891
-1.1867
-1.03977
-0.898817
-0.764539
-0.637631
-0.518798
-0.40875
-0.308184
-0.217765
-0.138098
-0.069695
-0.0129403
0.0319403
0.0649152
0.0861762
0.0961161
0.0953531
0.0847602
0.0654935
0.0389971
0.00697235
-0.0286949
-0.0660277
-0.103048
-0.137867
-0.168762
-0.194242
-0.213118
-0.224556
-0.228068
-0.223481
-0.210902
-0.190621
-0.163162
-0.129304
-0.0903079
-0.0475497
-0.00447028
0.0412423
-0.509497
-0.799323
-1.15916
-1.53388
-1.92492
-2.34778
-2.80884
-3.30831
-3.84355
-4.41066
-5.00564
-5.62497
-6.26594
-6.92658
-7.6056
-8.30219
-9.01591
-9.7465
-10.4938
-11.2573
-12.0365
-12.8301
-13.6363
-14.4525
-15.2747
-16.0982
-16.9166
-17.7227
-18.5077
-19.2624
-19.9765
-20.6394
-21.2409
-21.7708
-22.22
-22.5803
-22.8449
-23.0083
-23.0677
-23.0227
-22.8734
-22.6221
-22.2729
-21.8313
-21.3045
-20.7009
-20.0298
-19.3009
-18.5245
-17.7109
-16.8702
-16.012
-15.1453
-14.2784
-13.4186
-12.5726
-11.7458
-10.943
-10.1681
-9.42413
-8.71368
-8.03857
-7.40015
-6.79936
-6.23674
-5.7125
-5.2266
-4.77872
-4.3683
-3.99458
-3.65658
-3.35311
-3.08283
-2.84425
-2.63575
-2.45566
-2.30225
-2.17377
-2.0685
-1.98474
-1.92083
-1.87519
-1.8463
-1.8327
-1.83303
-1.84601
-1.87043
-1.90518
-1.94921
-2.00157
-2.06135
-2.1277
-2.19984
-2.27704
-2.35861
-2.44395
-2.5325
-2.62375
-2.71722
-2.81248
-2.9091
-3.00666
-3.10475
-3.20289
-3.30058
-3.39724
-3.4922
-3.58469
-3.67383
-3.75864
-3.83803
-3.91083
-3.97583
-4.03181
-4.07755
-4.11197
-4.1341
-4.14307
-4.13821
-4.11905
-4.08534
-4.03705
-3.97437
-3.89767
-3.80754
-3.7047
-3.59002
-3.46451
-3.32924
-3.18539
-3.03417
-2.87686
-2.71471
-2.54901
-2.381
-2.21188
-2.04281
-1.87487
-1.70905