/*--------------------------------*- C++ -*----------------------------------*\
  =========                 |
  \\      /  F ield         | OpenFOAM: The Open Source CFD Toolbox
   \\    /   O peration     | Website:  https://openfoam.org
    \\  /    A nd           | Version:  9
     \\/     M anipulation  |
\*---------------------------------------------------------------------------*/
FoamFile
{
    format      ascii;
    class       surfaceScalarField;
    location    "0.12";
    object      phi;
}
// * * * * * * * * * * * * * * * * * * * * * * * * * * * * * * * * * * * * * //

dimensions      [0 3 -1 0 0 0 0];

internalField   nonuniform List<scalar> 
24170
(
3.07078e-07
1.17629e-08
2.5563e-07
5.14476e-08
2.14901e-07
4.07296e-08
1.84471e-07
3.04294e-08
1.64894e-07
1.95774e-08
1.53661e-07
1.12331e-08
1.46547e-07
7.11351e-09
1.39931e-07
6.61658e-09
1.30973e-07
8.95706e-09
1.17822e-07
1.31511e-08
1.00065e-07
1.77577e-08
7.89943e-08
2.10704e-08
5.74897e-08
2.15046e-08
3.95186e-08
1.7971e-08
3.12092e-08
8.30945e-09
4.63336e-08
-1.51245e-08
1.09842e-07
-6.35079e-08
4.3279e-08
6.65625e-08
3.40562e-07
1.29261e-08
3.26583e-07
6.54266e-08
2.99488e-07
6.78241e-08
2.72492e-07
5.7426e-08
2.51465e-07
4.06037e-08
2.37869e-07
2.4829e-08
2.30038e-07
1.49448e-08
2.24805e-07
1.18499e-08
2.18771e-07
1.49909e-08
2.08925e-07
2.29967e-08
1.9318e-07
3.35033e-08
1.71052e-07
4.31984e-08
1.4429e-07
4.82667e-08
1.17257e-07
4.50041e-08
9.6955e-08
2.86111e-08
9.46655e-08
-1.2835e-08
1.12738e-07
-8.15806e-08
8.56533e-08
7.03639e-08
3.6202e-07
1.7158e-08
3.55911e-07
7.15353e-08
3.38056e-07
8.56797e-08
3.16896e-07
7.85854e-08
2.98513e-07
5.89864e-08
2.85984e-07
3.73582e-08
2.79038e-07
2.18905e-08
2.75284e-07
1.56044e-08
2.7166e-07
1.86145e-08
2.652e-07
2.94569e-08
2.53432e-07
4.52714e-08
2.34841e-07
6.17893e-08
2.09541e-07
7.35665e-08
1.80112e-07
7.44336e-08
1.51828e-07
5.6895e-08
1.31433e-07
7.55974e-09
1.11879e-07
-6.20262e-08
1.20233e-07
7.7299e-08
3.89419e-07
2.02778e-08
3.83838e-07
7.71162e-08
3.69697e-07
9.98204e-08
3.52212e-07
9.60709e-08
3.36523e-07
7.46756e-08
3.25694e-07
4.81871e-08
3.19996e-07
2.75883e-08
3.17617e-07
1.79834e-08
3.15908e-07
2.03235e-08
3.12157e-07
3.3208e-08
3.0391e-07
5.35186e-08
2.89187e-07
7.65124e-08
2.66884e-07
9.58692e-08
2.37527e-07
1.03791e-07
2.03593e-07
9.08287e-08
1.67385e-07
4.37678e-08
1.22289e-07
-1.69302e-08
1.56739e-07
8.57833e-08
4.18003e-07
2.29874e-08
4.1222e-07
8.28992e-08
4.00069e-07
1.11972e-07
3.85252e-07
1.10888e-07
3.7201e-07
8.79175e-08
3.63005e-07
5.71923e-08
3.58662e-07
3.19312e-08
3.57558e-07
1.9087e-08
3.57416e-07
2.04661e-08
3.55813e-07
3.48106e-08
3.50451e-07
5.8881e-08
3.39186e-07
8.7777e-08
3.2012e-07
1.14935e-07
2.91999e-07
1.31912e-07
2.5445e-07
1.28378e-07
2.0609e-07
9.21276e-08
1.42841e-07
4.6319e-08
2.01728e-07
9.78515e-08
4.48013e-07
2.58831e-08
4.41946e-07
8.89667e-08
4.31054e-07
1.22863e-07
4.18343e-07
1.23599e-07
4.07297e-07
9.89627e-08
4.00093e-07
6.43966e-08
3.97115e-07
3.49095e-08
3.97181e-07
1.90204e-08
3.98318e-07
1.9329e-08
3.98379e-07
3.47498e-08
3.95257e-07
6.20033e-08
3.86809e-07
9.62248e-08
3.707e-07
1.31044e-07
3.44403e-07
1.58208e-07
3.05223e-07
1.67559e-07
2.49109e-07
1.48242e-07
1.73623e-07
1.21805e-07
2.56782e-07
1.18569e-07
4.80028e-07
2.91272e-08
4.73608e-07
9.53863e-08
4.6358e-07
1.32892e-07
4.52609e-07
1.3457e-07
4.43543e-07
1.08029e-07
4.38062e-07
6.98782e-08
4.36403e-07
3.65688e-08
4.37519e-07
1.79035e-08
4.3968e-07
1.71686e-08
4.4098e-07
3.34493e-08
4.39511e-07
6.34731e-08
4.33216e-07
1.0252e-07
4.19598e-07
1.44662e-07
3.95421e-07
1.82385e-07
3.56478e-07
2.06501e-07
2.96971e-07
2.07749e-07
2.15251e-07
2.03525e-07
3.20534e-07
1.515e-07
5.14401e-07
3.2684e-08
5.07591e-07
1.02197e-07
4.98204e-07
1.42278e-07
4.8873e-07
1.44044e-07
4.81463e-07
1.15296e-07
4.776e-07
7.3741e-08
4.77174e-07
3.69951e-08
4.792e-07
1.58774e-08
4.82139e-07
1.4229e-08
4.84309e-07
3.12797e-08
4.83995e-07
6.37873e-08
4.79286e-07
1.07229e-07
4.67723e-07
1.56225e-07
4.45849e-07
2.04259e-07
4.0879e-07
2.43561e-07
3.49933e-07
2.66606e-07
2.67589e-07
2.85869e-07
3.903e-07
1.97822e-07
5.51356e-07
3.64619e-08
5.44191e-07
1.09361e-07
5.35337e-07
1.51133e-07
5.27193e-07
1.52187e-07
5.21569e-07
1.2092e-07
5.19202e-07
7.61084e-08
5.19886e-07
3.63111e-08
5.22653e-07
1.31099e-08
5.2613e-07
1.07517e-08
5.28846e-07
2.85639e-08
5.29296e-07
6.33374e-08
5.25763e-07
1.10762e-07
5.15973e-07
1.66015e-07
4.96614e-07
2.23617e-07
4.62851e-07
2.77324e-07
4.08115e-07
3.21342e-07
3.30201e-07
3.63784e-07
4.6247e-07
2.58031e-07
5.91084e-07
4.03556e-08
5.83676e-07
1.16769e-07
5.75324e-07
1.59485e-07
5.68395e-07
1.59117e-07
5.64271e-07
1.25044e-07
5.63253e-07
7.71267e-08
5.64887e-07
3.46772e-08
5.68198e-07
9.79872e-09
5.71969e-07
6.98054e-09
5.74952e-07
2.55808e-08
5.75883e-07
6.24065e-08
5.73295e-07
1.1335e-07
5.65209e-07
1.74101e-07
5.48706e-07
2.4012e-07
5.19481e-07
3.06548e-07
4.71698e-07
3.69125e-07
4.02758e-07
4.32723e-07
5.32021e-07
3.33207e-07
6.33777e-07
4.42598e-08
6.26295e-07
1.24251e-07
6.18477e-07
1.67303e-07
6.12682e-07
1.64912e-07
6.09917e-07
1.2781e-07
6.10075e-07
7.69682e-08
6.1246e-07
3.22923e-08
6.16087e-07
6.1713e-09
6.19907e-07
3.16143e-09
6.22922e-07
2.25655e-08
6.24155e-07
6.11732e-08
6.22454e-07
1.15051e-07
6.16226e-07
1.8033e-07
6.03097e-07
2.53249e-07
5.79583e-07
3.30062e-07
5.41025e-07
4.07683e-07
4.84929e-07
4.88819e-07
5.92853e-07
4.24097e-07
5.70846e-07
4.74974e-08
5.64646e-07
1.30451e-07
5.58516e-07
1.73432e-07
5.54457e-07
1.68971e-07
5.53066e-07
1.29201e-07
5.53962e-07
7.60723e-08
5.56383e-07
2.98708e-08
5.59505e-07
3.04974e-09
5.62589e-07
7.74257e-11
5.65024e-07
2.01304e-08
5.66249e-07
5.99483e-08
5.65584e-07
1.15716e-07
5.6204e-07
1.83874e-07
5.54104e-07
2.61185e-07
5.3957e-07
3.44596e-07
5.1562e-07
4.31633e-07
4.80618e-07
5.23821e-07
6.32266e-07
4.41205e-07
6.96269e-07
5.10443e-08
6.89456e-07
1.37264e-07
6.83109e-07
1.79779e-07
6.79433e-07
1.72647e-07
6.78826e-07
1.29809e-07
6.8056e-07
7.43382e-08
6.83604e-07
2.68264e-08
6.87051e-07
-3.96751e-10
6.90258e-07
-3.1296e-09
6.92825e-07
1.75629e-08
6.94456e-07
5.83174e-08
6.94756e-07
1.15416e-07
6.93042e-07
1.85587e-07
6.88178e-07
2.6605e-07
6.78466e-07
3.54308e-07
6.61806e-07
4.48293e-07
6.37311e-07
5.48315e-07
6.59933e-07
6.09644e-07
8.49375e-07
5.47536e-08
8.42296e-07
1.44343e-07
8.3617e-07
1.85905e-07
8.33294e-07
1.75523e-07
8.33751e-07
1.29352e-07
8.36391e-07
7.16975e-08
8.39904e-07
2.33142e-08
8.4337e-07
-3.86281e-09
8.46388e-07
-6.1482e-09
8.48957e-07
1.49941e-08
8.51251e-07
5.60236e-08
8.53383e-07
1.13284e-07
8.55223e-07
1.83746e-07
8.56272e-07
2.65001e-07
8.55607e-07
3.54974e-07
8.52058e-07
4.51842e-07
8.45423e-07
5.5495e-07
6.66337e-07
8.39019e-07
1.0363e-06
5.83778e-08
1.02962e-06
1.51024e-07
1.02447e-06
1.91054e-07
1.023e-06
1.76994e-07
1.02481e-06
1.27537e-07
1.02828e-06
6.82251e-08
1.03188e-06
1.97154e-08
1.03484e-06
-6.82542e-09
1.03725e-06
-8.55067e-09
1.03975e-06
1.24887e-08
1.04328e-06
5.24943e-08
1.04875e-06
1.07818e-07
1.05689e-06
1.75602e-07
1.06819e-06
2.53705e-07
1.08278e-06
3.40377e-07
1.10054e-06
4.34083e-07
1.12168e-06
5.33811e-07
6.39786e-07
1.14823e-06
1.26456e-06
6.14952e-08
1.25943e-06
1.5616e-07
1.25655e-06
1.93935e-07
1.25744e-06
1.76095e-07
1.26101e-06
1.23974e-07
1.26513e-06
6.41024e-08
1.26825e-06
1.65973e-08
1.27007e-06
-8.64923e-09
1.27151e-06
-9.99081e-09
1.27425e-06
9.75643e-09
1.28026e-06
4.64759e-08
1.29161e-06
9.64724e-08
1.31024e-06
1.56971e-07
1.338e-06
2.25948e-07
1.37647e-06
3.01907e-07
1.42677e-06
3.83775e-07
1.48952e-06
4.71067e-07
5.6404e-07
1.56526e-06
1.54345e-06
6.33648e-08
1.54177e-06
1.57837e-07
1.54332e-06
1.92386e-07
1.54821e-06
1.71207e-07
1.55427e-06
1.17915e-07
1.55903e-06
5.93389e-08
1.56126e-06
1.4371e-08
1.56165e-06
-9.03756e-09
1.56241e-06
-1.07558e-08
1.56663e-06
5.5388e-09
1.57769e-06
3.54166e-08
1.59902e-06
7.51351e-08
1.63407e-06
1.2193e-07
1.68622e-06
1.73791e-07
1.7588e-06
2.29332e-07
1.85445e-06
2.88125e-07
1.97452e-06
3.5099e-07
4.19759e-07
2.11881e-06
1.88445e-06
6.2682e-08
1.88926e-06
1.53019e-07
1.89861e-06
1.83043e-07
1.91013e-06
1.59686e-07
1.92026e-06
1.07781e-07
1.92642e-06
5.3185e-08
1.92835e-06
1.24373e-08
1.92828e-06
-8.96325e-09
1.93018e-06
-1.26641e-08
1.93884e-06
-3.11666e-09
1.9592e-06
1.50554e-08
1.99601e-06
3.83287e-08
2.05443e-06
6.35067e-08
2.13793e-06
9.02909e-08
2.25182e-06
1.15444e-07
2.39955e-06
1.40388e-07
2.58298e-06
1.67569e-07
1.99789e-07
2.80295e-06
2.30175e-06
5.72654e-08
2.3174e-06
1.37368e-07
2.33912e-06
1.61327e-07
2.361e-06
1.37805e-07
2.37803e-06
9.07534e-08
2.38791e-06
4.3299e-08
2.39184e-06
8.50852e-09
2.39382e-06
-1.09462e-08
2.39958e-06
-1.84234e-08
2.41536e-06
-1.88983e-08
2.44704e-06
-1.66179e-08
2.49994e-06
-1.4575e-08
2.57828e-06
-1.483e-08
2.6873e-06
-1.87308e-08
2.82983e-06
-2.70829e-08
3.00941e-06
-3.91952e-08
3.22938e-06
-5.23986e-08
-6.19552e-08
3.49112e-06
1.68798e-06
5.03595e-08
1.70548e-06
1.19864e-07
1.72764e-06
1.39169e-07
1.7486e-06
1.16845e-07
1.76458e-06
7.47719e-08
1.77434e-06
3.35364e-08
1.77908e-06
3.76719e-09
1.7817e-06
-1.3562e-08
1.78603e-06
-2.27569e-08
1.79607e-06
-2.89354e-08
1.81531e-06
-3.58619e-08
1.84648e-06
-4.57355e-08
1.89141e-06
-5.97679e-08
1.95137e-06
-7.86887e-08
2.02713e-06
-1.02837e-07
2.11968e-06
-1.31746e-07
2.2307e-06
-1.6342e-07
-1.93821e-07
2.36256e-06
1.47125e-06
4.25644e-08
1.49022e-06
1.00892e-07
1.51338e-06
1.16014e-07
1.5349e-06
9.53236e-08
1.55153e-06
5.81418e-08
1.56243e-06
2.26368e-08
1.56841e-06
-2.21299e-09
1.57158e-06
-1.67282e-08
1.57473e-06
-2.59077e-08
1.58074e-06
-3.49454e-08
1.59198e-06
-4.71041e-08
1.60996e-06
-6.37189e-08
1.63523e-06
-8.50386e-08
1.66751e-06
-1.10962e-07
1.706e-06
-1.41336e-07
1.75004e-06
-1.75779e-07
1.79976e-06
-2.13141e-07
-2.50785e-07
1.85672e-06
1.28202e-06
3.45588e-08
1.30113e-06
8.17825e-08
1.324e-06
9.31458e-08
1.34518e-06
7.41401e-08
1.36194e-06
4.1381e-08
1.37343e-06
1.11454e-08
1.38007e-06
-8.85109e-09
1.38321e-06
-1.98638e-08
1.38477e-06
-2.74703e-08
1.38675e-06
-3.69226e-08
1.39067e-06
-5.10312e-08
1.3973e-06
-7.03415e-08
1.40648e-06
-9.42203e-08
1.41733e-06
-1.2181e-07
1.42849e-06
-1.52497e-07
1.43861e-06
-1.85901e-07
1.44697e-06
-2.21507e-07
-2.57971e-07
1.45416e-06
1.11681e-06
2.68452e-08
1.13532e-06
6.32695e-08
1.15725e-06
7.12154e-08
1.17756e-06
5.38285e-08
1.19384e-06
2.51039e-08
1.20516e-06
-1.78448e-10
1.21164e-06
-1.53256e-08
1.21417e-06
-2.23926e-08
1.2141e-06
-2.74005e-08
1.21275e-06
-3.55772e-08
1.21102e-06
-4.93033e-08
1.20915e-06
-6.84665e-08
1.20668e-06
-9.17531e-08
1.20263e-06
-1.1776e-07
1.19569e-06
-1.4556e-07
1.18457e-06
-1.74773e-07
1.16836e-06
-2.053e-07
-2.36722e-07
1.14711e-06
9.72537e-07
1.98298e-08
9.90075e-07
4.57314e-08
1.01078e-06
5.05102e-08
1.02986e-06
3.4745e-08
1.04503e-06
9.9365e-09
1.05529e-06
-1.04361e-08
1.0607e-06
-2.07333e-08
1.06207e-06
-2.3769e-08
1.06048e-06
-2.58029e-08
1.05673e-06
-3.18299e-08
1.05117e-06
-4.37428e-08
1.04361e-06
-6.09063e-08
1.03344e-06
-8.15904e-08
1.01982e-06
-1.04133e-07
1.00176e-06
-1.27499e-07
9.78338e-07
-1.51354e-07
9.48887e-07
-1.7585e-07
-2.01131e-07
9.13296e-07
8.46535e-07
1.38296e-08
8.62931e-07
2.9336e-08
8.82291e-07
3.11502e-08
8.9983e-07
1.72063e-08
9.13211e-07
-3.44453e-09
9.21455e-07
-1.86808e-08
9.24909e-07
-2.4187e-08
9.24649e-07
-2.35091e-08
9.21667e-07
-2.28204e-08
9.16387e-07
-2.65501e-08
9.08622e-07
-3.59779e-08
8.97786e-07
-5.00706e-08
8.83165e-07
-6.69694e-08
8.64096e-07
-8.50643e-08
8.4002e-07
-1.03423e-07
8.10464e-07
-1.21797e-07
7.75062e-07
-1.40448e-07
-1.59788e-07
7.3372e-07
7.36269e-07
9.28927e-09
7.51654e-07
1.39511e-08
7.69554e-07
1.32502e-08
7.85107e-07
1.65278e-09
7.95901e-07
-1.42383e-08
8.01172e-07
-2.39522e-08
8.01898e-07
-2.49129e-08
7.99658e-07
-2.12688e-08
7.95469e-07
-1.86317e-08
7.8938e-07
-2.04609e-08
7.807e-07
-2.72982e-08
7.68483e-07
-3.78536e-08
7.51936e-07
-5.04218e-08
7.30594e-07
-6.37224e-08
7.04265e-07
-7.7094e-08
6.72857e-07
-9.03898e-08
6.36258e-07
-1.03849e-07
-1.17914e-07
5.94383e-07
6.38923e-07
7.37254e-09
6.54117e-07
-1.24232e-09
6.70201e-07
-2.83394e-09
6.82989e-07
-1.11349e-08
6.90152e-07
-2.14012e-08
6.91502e-07
-2.53028e-08
6.88961e-07
-2.23712e-08
6.84662e-07
-1.69701e-08
6.79558e-07
-1.35279e-08
6.73257e-07
-1.41595e-08
6.64609e-07
-1.86511e-08
6.52415e-07
-2.56587e-08
6.3587e-07
-3.3877e-08
6.14682e-07
-4.2535e-08
5.8891e-07
-5.13217e-08
5.58697e-07
-6.01768e-08
5.24071e-07
-6.92227e-08
-7.8764e-08
4.84921e-07
5.51587e-07
1.03316e-08
5.68626e-07
-1.82809e-08
5.8111e-07
-1.53181e-08
5.89595e-07
-1.96201e-08
5.91657e-07
-2.34632e-08
5.882e-07
-2.18459e-08
5.82257e-07
-1.64278e-08
5.76252e-07
-1.09646e-08
5.70745e-07
-8.02147e-09
5.64785e-07
-8.19912e-09
5.5687e-07
-1.07361e-08
5.45737e-07
-1.45263e-08
5.30696e-07
-1.88361e-08
5.11588e-07
-2.34264e-08
4.88555e-07
-2.8289e-08
4.61793e-07
-3.34142e-08
4.31354e-07
-3.87844e-08
-4.44897e-08
3.9708e-07
4.8372e-07
9.37224e-09
4.92361e-07
-2.69217e-08
4.9729e-07
-2.02476e-08
4.96848e-07
-1.9178e-08
4.91146e-07
-1.7761e-08
4.82173e-07
-1.28732e-08
4.73462e-07
-7.71669e-09
4.6679e-07
-4.29264e-09
4.61742e-07
-2.97306e-09
4.56741e-07
-3.19824e-09
4.50192e-07
-4.1873e-09
4.41073e-07
-5.40653e-09
4.28952e-07
-6.7153e-09
4.13747e-07
-8.22208e-09
3.95498e-07
-1.00397e-08
3.74244e-07
-1.21601e-08
3.49957e-07
-1.44979e-08
-1.69889e-08
3.22457e-07
4.2964e-07
4.02718e-07
3.82471e-07
3.63293e-07
3.45532e-07
3.32658e-07
3.24942e-07
3.20649e-07
3.17676e-07
3.14478e-07
3.1029e-07
3.04884e-07
2.98169e-07
2.89946e-07
2.79907e-07
2.67747e-07
2.53249e-07
2.3626e-07
2.41897e-07
-2.41897e-07
5.66385e-07
-3.24488e-07
8.61762e-07
-2.95377e-07
1.1003e-06
-2.38541e-07
1.27708e-06
-1.76779e-07
1.39292e-06
-1.15835e-07
1.45038e-06
-5.74588e-08
1.45547e-06
-5.09004e-09
1.40205e-06
5.34103e-08
1.30309e-06
9.8967e-08
1.17181e-06
1.31277e-07
1.02239e-06
1.49419e-07
8.6658e-07
1.55812e-07
7.08786e-07
1.57794e-07
5.45492e-07
1.63294e-07
3.6865e-07
1.76841e-07
1.67876e-07
2.00775e-07
-6.70745e-08
2.3495e-07
-3.41869e-07
2.74794e-07
-6.52673e-07
3.10805e-07
-9.89875e-07
3.37202e-07
-1.34249e-06
3.52617e-07
-1.69985e-06
3.57359e-07
-2.05249e-06
3.52642e-07
-2.39263e-06
3.40133e-07
-2.71428e-06
3.21658e-07
-3.01328e-06
2.98995e-07
-3.287e-06
2.7372e-07
-3.53415e-06
2.47148e-07
-3.75449e-06
2.2034e-07
-3.94856e-06
1.94069e-07
-4.11741e-06
1.6885e-07
-4.26239e-06
1.44985e-07
-4.38501e-06
1.22616e-07
-4.48678e-06
1.01767e-07
-4.56917e-06
8.23916e-08
-4.63357e-06
6.43987e-08
-4.68124e-06
4.76738e-08
-4.71338e-06
3.21415e-08
-4.7312e-06
1.78229e-08
-4.73571e-06
4.50314e-09
-4.72965e-06
-6.06193e-09
-4.71415e-06
-1.54918e-08
-4.6903e-06
-2.38513e-08
-4.65887e-06
-3.14313e-08
-4.62049e-06
-3.83834e-08
-4.57571e-06
-4.47801e-08
-4.52506e-06
-5.0652e-08
-4.46905e-06
-5.60092e-08
-4.40819e-06
-6.08521e-08
-4.34302e-06
-6.51775e-08
-4.27404e-06
-6.89813e-08
-4.20177e-06
-7.22614e-08
-4.12676e-06
-7.50175e-08
-4.0495e-06
-7.72532e-08
-3.97053e-06
-7.89755e-08
-3.89033e-06
-8.01951e-08
-3.80941e-06
-8.09268e-08
-3.72822e-06
-8.11891e-08
-3.64721e-06
-8.10039e-08
-3.56682e-06
-8.03966e-08
-3.48742e-06
-7.93954e-08
-3.40939e-06
-7.8031e-08
-3.33305e-06
-7.63362e-08
-3.25871e-06
-7.43452e-08
-3.18662e-06
-7.2093e-08
-3.117e-06
-6.96149e-08
-3.05006e-06
-6.69455e-08
-2.98594e-06
-6.41179e-08
-2.92477e-06
-6.1163e-08
-2.86667e-06
-5.8108e-08
-2.81169e-06
-5.49767e-08
-2.7599e-06
-5.17885e-08
-2.71134e-06
-4.85584e-08
-2.66604e-06
-4.52987e-08
-2.62403e-06
-4.20191e-08
-2.5853e-06
-3.87292e-08
-2.54986e-06
-3.544e-08
-2.51769e-06
-3.21651e-08
-2.48877e-06
-2.89211e-08
-2.46304e-06
-2.57283e-08
-2.44043e-06
-2.26099e-08
-2.42084e-06
-1.95916e-08
-2.40414e-06
-1.67007e-08
-2.39017e-06
-1.3965e-08
-2.37876e-06
-1.14103e-08
-2.36971e-06
-9.05839e-09
-2.36278e-06
-6.92799e-09
-2.35774e-06
-5.0342e-09
-2.35436e-06
-3.38182e-09
-2.35236e-06
-1.99983e-09
-2.35149e-06
-8.76547e-10
-2.35133e-06
-1.59129e-10
-2.35171e-06
3.86561e-10
-2.35236e-06
6.43833e-10
-2.35298e-06
6.23244e-10
-2.35335e-06
3.72023e-10
-2.3533e-06
-4.70655e-11
-2.35273e-06
-5.72414e-10
-2.35184e-06
-8.91621e-10
-2.35085e-06
-9.90223e-10
-2.34992e-06
-9.29597e-10
-2.34906e-06
-8.56442e-10
-2.34823e-06
-8.3267e-10
-2.34734e-06
-8.91365e-10
-2.34627e-06
-1.07499e-09
-2.34485e-06
-1.41913e-09
-2.34289e-06
-1.95625e-09
-2.34017e-06
-2.71604e-09
-2.33645e-06
-3.72354e-09
-2.33145e-06
-4.99828e-09
-2.3249e-06
-6.55338e-09
-2.3165e-06
-8.39486e-09
-2.30598e-06
-1.05214e-08
-2.29306e-06
-1.29245e-08
-2.27747e-06
-1.55885e-08
-2.25898e-06
-1.84916e-08
-2.23737e-06
-2.16069e-08
-2.21247e-06
-2.49032e-08
-2.18412e-06
-2.83464e-08
-2.15222e-06
-3.1901e-08
-2.11669e-06
-3.55312e-08
-2.07749e-06
-3.92021e-08
-2.03461e-06
-4.2881e-08
-1.98807e-06
-4.65382e-08
-1.93792e-06
-5.01475e-08
-1.88423e-06
-5.36869e-08
-1.82709e-06
-5.71391e-08
-1.7666e-06
-6.0491e-08
-1.70287e-06
-6.37342e-08
-1.636e-06
-6.68644e-08
-1.56612e-06
-6.98813e-08
-1.49334e-06
-7.27878e-08
-1.41775e-06
-7.55896e-08
-1.33945e-06
-7.82943e-08
-1.25854e-06
-8.09109e-08
-1.17509e-06
-8.3449e-08
-1.08918e-06
-8.59152e-08
-1.00086e-06
-8.83136e-08
-9.10199e-07
-9.06639e-08
-8.17175e-07
-9.30237e-08
-7.21737e-07
-9.54381e-08
-6.23879e-07
-9.7858e-08
-5.23775e-07
-1.00104e-07
-4.21917e-07
-1.01858e-07
-3.18382e-07
-1.03535e-07
-2.13678e-07
-1.04704e-07
-1.08465e-07
-1.05213e-07
-1.91789e-09
-1.06547e-07
1.05161e-07
-1.07079e-07
2.13862e-07
-1.08701e-07
3.22174e-07
-1.08312e-07
4.28781e-07
-1.06607e-07
5.34914e-07
-1.06133e-07
6.39247e-07
-1.04333e-07
7.42882e-07
-1.03635e-07
8.41301e-07
-9.84191e-08
9.33825e-07
-9.25241e-08
1.02233e-06
-8.85006e-08
1.10195e-06
-7.962e-08
1.17483e-06
-7.28887e-08
1.24005e-06
-6.52196e-08
1.29215e-06
-5.20998e-08
1.33392e-06
-4.17624e-08
1.36324e-06
-2.93256e-08
1.37804e-06
-1.48011e-08
1.37956e-06
-1.51867e-09
1.3663e-06
1.32585e-08
1.33926e-06
2.7047e-08
1.30053e-06
3.87244e-08
1.25185e-06
4.8679e-08
1.19477e-06
5.7078e-08
1.13182e-06
6.29551e-08
1.06551e-06
6.63118e-08
9.97794e-07
6.77136e-08
9.29934e-07
6.78596e-08
8.62459e-07
6.74759e-08
7.95306e-07
6.71526e-08
7.25969e-07
6.93373e-08
7.81063e-08
6.47862e-07
3.03758e-07
-5.45655e-07
5.35086e-07
-5.55816e-07
6.87315e-07
-4.47606e-07
7.84001e-07
-3.35227e-07
8.36042e-07
-2.2882e-07
8.49247e-07
-1.2904e-07
8.27582e-07
-3.57944e-08
7.71075e-07
5.14174e-08
6.9019e-07
1.34296e-07
5.77743e-07
2.11413e-07
4.29101e-07
2.79919e-07
2.40668e-07
3.37853e-07
9.62101e-09
3.86858e-07
-2.64849e-07
4.32264e-07
-5.81683e-07
4.80128e-07
-9.36788e-07
5.31946e-07
-1.32023e-06
5.84214e-07
-1.71621e-06
6.30935e-07
-2.1074e-06
6.6598e-07
-2.48156e-06
6.84967e-07
-2.8308e-06
6.86438e-07
-3.14962e-06
6.71441e-07
-3.43485e-06
6.42586e-07
-3.68543e-06
6.03222e-07
-3.90211e-06
5.56818e-07
-4.087e-06
5.06549e-07
-4.24306e-06
4.55048e-07
-4.37365e-06
4.0431e-07
-4.4822e-06
3.55707e-07
-4.57193e-06
3.10068e-07
-4.64565e-06
2.67792e-07
-4.70577e-06
2.28961e-07
-4.75422e-06
1.93445e-07
-4.7926e-06
1.60991e-07
-4.82213e-06
1.31294e-07
-4.84378e-06
1.04045e-07
-4.85834e-06
7.89595e-08
-4.86646e-06
5.57945e-08
-4.86868e-06
3.43635e-08
-4.86539e-06
1.45315e-08
-4.8569e-06
-3.99487e-09
-4.84168e-06
-2.12762e-08
-4.81949e-06
-3.76857e-08
-4.79018e-06
-5.31583e-08
-4.75394e-06
-6.76727e-08
-4.71109e-06
-8.12271e-08
-4.66206e-06
-9.38167e-08
-4.60728e-06
-1.0543e-07
-4.54724e-06
-1.16051e-07
-4.48243e-06
-1.25659e-07
-4.41337e-06
-1.34237e-07
-4.34058e-06
-1.41769e-07
-4.2646e-06
-1.48243e-07
-4.18596e-06
-1.53655e-07
-4.10521e-06
-1.58005e-07
-4.02288e-06
-1.61304e-07
-3.93951e-06
-1.63569e-07
-3.85561e-06
-1.64823e-07
-3.7717e-06
-1.65099e-07
-3.68827e-06
-1.64437e-07
-3.60578e-06
-1.62882e-07
-3.52469e-06
-1.60485e-07
-3.44542e-06
-1.57305e-07
-3.36835e-06
-1.53404e-07
-3.29385e-06
-1.48847e-07
-3.22224e-06
-1.43705e-07
-3.1538e-06
-1.38049e-07
-3.0888e-06
-1.31953e-07
-3.02742e-06
-1.25493e-07
-2.96984e-06
-1.18743e-07
-2.91617e-06
-1.11781e-07
-2.86647e-06
-1.04677e-07
-2.82075e-06
-9.75037e-08
-2.77899e-06
-9.03245e-08
-2.74109e-06
-8.31975e-08
-2.70693e-06
-7.61731e-08
-2.67637e-06
-6.92928e-08
-2.64922e-06
-6.25911e-08
-2.62529e-06
-5.60971e-08
-2.60437e-06
-4.9838e-08
-2.58626e-06
-4.3841e-08
-2.57073e-06
-3.81366e-08
-2.55756e-06
-3.27584e-08
-2.54652e-06
-2.77431e-08
-2.53736e-06
-2.31277e-08
-2.52982e-06
-1.89461e-08
-2.52366e-06
-1.52256e-08
-2.5186e-06
-1.19861e-08
-2.5144e-06
-9.23549e-09
-2.51081e-06
-6.97043e-09
-2.50763e-06
-5.17707e-09
-2.50466e-06
-3.84744e-09
-2.50187e-06
-2.94947e-09
-2.4991e-06
-2.3842e-09
-2.4964e-06
-2.05638e-09
-2.49388e-06
-1.89877e-09
-2.49168e-06
-1.8244e-09
-2.48992e-06
-1.80882e-09
-2.48874e-06
-1.75353e-09
-2.48801e-06
-1.61749e-09
-2.48755e-06
-1.44796e-09
-2.48718e-06
-1.30248e-09
-2.48679e-06
-1.2499e-09
-2.48628e-06
-1.34529e-09
-2.48552e-06
-1.64634e-09
-2.48438e-06
-2.21896e-09
-2.48267e-06
-3.12692e-09
-2.48019e-06
-4.43066e-09
-2.47673e-06
-6.18481e-09
-2.47201e-06
-8.43557e-09
-2.46579e-06
-1.12184e-08
-2.45779e-06
-1.45562e-08
-2.44773e-06
-1.84586e-08
-2.43533e-06
-2.29206e-08
-2.42033e-06
-2.79233e-08
-2.40248e-06
-3.34345e-08
-2.38156e-06
-3.94102e-08
-2.35738e-06
-4.5796e-08
-2.32975e-06
-5.25297e-08
-2.29855e-06
-5.95439e-08
-2.26368e-06
-6.67681e-08
-2.22508e-06
-7.41314e-08
-2.18272e-06
-8.15649e-08
-2.1366e-06
-8.90039e-08
-2.08675e-06
-9.63892e-08
-2.03323e-06
-1.03669e-07
-1.97611e-06
-1.108e-07
-1.91551e-06
-1.17746e-07
-1.85151e-06
-1.24482e-07
-1.78426e-06
-1.30991e-07
-1.71386e-06
-1.37264e-07
-1.64044e-06
-1.433e-07
-1.56412e-06
-1.49104e-07
-1.48502e-06
-1.54688e-07
-1.40325e-06
-1.60067e-07
-1.3189e-06
-1.65258e-07
-1.23207e-06
-1.70282e-07
-1.14283e-06
-1.75157e-07
-1.05125e-06
-1.79898e-07
-9.57375e-07
-1.84534e-07
-8.6129e-07
-1.89108e-07
-7.63086e-07
-1.93642e-07
-6.62874e-07
-1.9807e-07
-5.60774e-07
-2.02204e-07
-4.5675e-07
-2.05882e-07
-3.51113e-07
-2.09172e-07
-2.4411e-07
-2.11707e-07
-1.35436e-07
-2.13887e-07
-2.57007e-08
-2.16282e-07
8.50436e-08
-2.17823e-07
1.95453e-07
-2.19111e-07
3.06807e-07
-2.19666e-07
4.17716e-07
-2.17516e-07
5.27234e-07
-2.15651e-07
6.35493e-07
-2.12592e-07
7.40418e-07
-2.08559e-07
8.43569e-07
-2.0157e-07
9.42931e-07
-1.91886e-07
1.03655e-06
-1.82119e-07
1.12556e-06
-1.68634e-07
1.20699e-06
-1.54314e-07
1.28007e-06
-1.38305e-07
1.34595e-06
-1.17971e-07
1.40132e-06
-9.71336e-08
1.44653e-06
-7.45407e-08
1.48215e-06
-5.04178e-08
1.50765e-06
-2.70183e-08
1.52322e-06
-2.31099e-09
1.52683e-06
2.34388e-08
1.51742e-06
4.81324e-08
1.4946e-06
7.14989e-08
1.45864e-06
9.30399e-08
1.41016e-06
1.11429e-07
1.35091e-06
1.25567e-07
1.28346e-06
1.35157e-07
1.21081e-06
1.40511e-07
1.13571e-06
1.4258e-07
1.06074e-06
1.42119e-07
9.86062e-07
1.44016e-07
1.4981e-07
9.14359e-07
1.94571e-07
-7.40226e-07
2.54809e-07
-6.16054e-07
2.69591e-07
-4.62388e-07
2.55293e-07
-3.20929e-07
2.14657e-07
-1.88183e-07
1.47182e-07
-6.15654e-08
5.1168e-08
6.02199e-08
-7.55981e-08
1.78183e-07
-2.33803e-07
2.92501e-07
-4.2447e-07
4.0208e-07
-6.49333e-07
5.04782e-07
-9.10339e-07
5.9886e-07
-1.20754e-06
6.84059e-07
-1.53614e-06
7.60862e-07
-1.88458e-06
8.28569e-07
-2.2368e-06
8.84162e-07
-2.57613e-06
9.23546e-07
-2.88878e-06
9.43593e-07
-3.16617e-06
9.4336e-07
-3.40536e-06
9.24159e-07
-3.60782e-06
8.88901e-07
-3.77768e-06
8.41301e-07
-3.92031e-06
7.8522e-07
-4.04129e-06
7.24202e-07
-4.14568e-06
6.61203e-07
-4.23761e-06
5.98482e-07
-4.32019e-06
5.37625e-07
-4.3955e-06
4.79626e-07
-4.46481e-06
4.25014e-07
-4.52872e-06
3.73971e-07
-4.58736e-06
3.26439e-07
-4.64062e-06
2.82216e-07
-4.68819e-06
2.41019e-07
-4.72974e-06
2.02539e-07
-4.76491e-06
1.66468e-07
-4.79339e-06
1.32527e-07
-4.8149e-06
1.00471e-07
-4.82921e-06
7.00982e-08
-4.83609e-06
4.12443e-08
-4.83533e-06
1.37695e-08
-4.82688e-06
-1.24426e-08
-4.81067e-06
-3.74847e-08
-4.78699e-06
-6.13632e-08
-4.75612e-06
-8.40369e-08
-4.71833e-06
-1.05454e-07
-4.67399e-06
-1.25566e-07
-4.62349e-06
-1.44323e-07
-4.56724e-06
-1.61676e-07
-4.50572e-06
-1.77577e-07
-4.43939e-06
-1.91983e-07
-4.36877e-06
-2.04854e-07
-4.29439e-06
-2.16159e-07
-4.21675e-06
-2.25874e-07
-4.13642e-06
-2.33987e-07
-4.05393e-06
-2.40497e-07
-3.96982e-06
-2.45413e-07
-3.88463e-06
-2.48758e-07
-3.79889e-06
-2.50566e-07
-3.71311e-06
-2.50882e-07
-3.62778e-06
-2.49763e-07
-3.54339e-06
-2.47273e-07
-3.46039e-06
-2.43489e-07
-3.3792e-06
-2.38495e-07
-3.30022e-06
-2.3238e-07
-3.22383e-06
-2.25242e-07
-3.15035e-06
-2.17182e-07
-3.08009e-06
-2.08306e-07
-3.01332e-06
-1.98723e-07
-2.95027e-06
-1.88544e-07
-2.89113e-06
-1.77882e-07
-2.83606e-06
-1.6685e-07
-2.78518e-06
-1.55562e-07
-2.73855e-06
-1.4413e-07
-2.69621e-06
-1.32665e-07
-2.65814e-06
-1.21272e-07
-2.62426e-06
-1.10055e-07
-2.59444e-06
-9.91059e-08
-2.56852e-06
-8.85111e-08
-2.54627e-06
-7.83462e-08
-2.52743e-06
-6.86772e-08
-2.51171e-06
-5.9561e-08
-2.4988e-06
-5.1046e-08
-2.48839e-06
-4.31733e-08
-2.48016e-06
-3.5977e-08
-2.4738e-06
-2.94841e-08
-2.46903e-06
-2.37126e-08
-2.46559e-06
-1.86692e-08
-2.46323e-06
-1.43485e-08
-2.46173e-06
-1.07292e-08
-2.46093e-06
-7.77552e-09
-2.46067e-06
-5.43555e-09
-2.46087e-06
-3.64844e-09
-2.46149e-06
-2.32949e-09
-2.46249e-06
-1.3802e-09
-2.46385e-06
-6.98605e-10
-2.46555e-06
-1.97417e-10
-2.46757e-06
1.97623e-10
-2.46991e-06
5.31224e-10
-2.47251e-06
8.38965e-10
-2.47524e-06
1.11504e-09
-2.478e-06
1.31405e-09
-2.48069e-06
1.3885e-09
-2.48322e-06
1.28209e-09
-2.48549e-06
9.22875e-10
-2.48737e-06
2.30413e-10
-2.4887e-06
-8.867e-10
-2.48931e-06
-2.51681e-09
-2.489e-06
-4.74576e-09
-2.48753e-06
-7.65134e-09
-2.48467e-06
-1.12994e-08
-2.48014e-06
-1.57404e-08
-2.47369e-06
-2.10062e-08
-2.46504e-06
-2.71089e-08
-2.45392e-06
-3.40395e-08
-2.44008e-06
-4.17683e-08
-2.42327e-06
-5.02461e-08
-2.40327e-06
-5.94061e-08
-2.3799e-06
-6.9167e-08
-2.35299e-06
-7.94355e-08
-2.32243e-06
-9.01107e-08
-2.28811e-06
-1.01088e-07
-2.24998e-06
-1.1226e-07
-2.20802e-06
-1.23526e-07
-2.16223e-06
-1.34789e-07
-2.11266e-06
-1.45959e-07
-2.05937e-06
-1.5696e-07
-2.00244e-06
-1.67726e-07
-1.94199e-06
-1.78204e-07
-1.87812e-06
-1.88354e-07
-1.81095e-06
-1.98151e-07
-1.74064e-06
-2.07581e-07
-1.6673e-06
-2.16642e-07
-1.59106e-06
-2.25341e-07
-1.51205e-06
-2.33696e-07
-1.43039e-06
-2.41728e-07
-1.34618e-06
-2.49467e-07
-1.25952e-06
-2.5694e-07
-1.1705e-06
-2.64177e-07
-1.07919e-06
-2.71206e-07
-9.85674e-07
-2.78055e-07
-8.9003e-07
-2.84753e-07
-7.92373e-07
-2.91299e-07
-6.92822e-07
-2.97621e-07
-5.91448e-07
-3.03577e-07
-4.88282e-07
-3.09048e-07
-3.83514e-07
-3.1394e-07
-2.77157e-07
-3.18064e-07
-1.69296e-07
-3.21749e-07
-6.04164e-08
-3.25162e-07
4.9356e-08
-3.27595e-07
1.59397e-07
-3.29152e-07
2.69376e-07
-3.29645e-07
3.79565e-07
-3.27706e-07
4.88654e-07
-3.2474e-07
5.96188e-07
-3.20127e-07
7.01232e-07
-3.13603e-07
8.03899e-07
-3.04238e-07
9.03758e-07
-2.91744e-07
9.99001e-07
-2.77362e-07
1.08995e-06
-2.59579e-07
1.17502e-06
-2.39383e-07
1.25331e-06
-2.16604e-07
1.32552e-06
-1.90174e-07
1.39011e-06
-1.61723e-07
1.44677e-06
-1.31202e-07
1.4955e-06
-9.91476e-08
1.53544e-06
-6.6965e-08
1.56675e-06
-3.36176e-08
1.58914e-06
1.04777e-09
1.60138e-06
3.58889e-08
1.60264e-06
7.02453e-08
1.59215e-06
1.03526e-07
1.5691e-06
1.34482e-07
1.53312e-06
1.61547e-07
1.48478e-06
1.83496e-07
1.42567e-06
1.99625e-07
1.35822e-06
2.10023e-07
1.28559e-06
2.14749e-07
1.21087e-06
2.18736e-07
2.18572e-07
1.14211e-06
-3.98892e-09
-7.36237e-07
-8.04425e-08
-5.396e-07
-1.71419e-07
-3.71411e-07
-2.7678e-07
-2.15568e-07
-4.00787e-07
-6.4177e-08
-5.4723e-07
8.48777e-08
-7.19199e-07
2.32189e-07
-9.18002e-07
3.76987e-07
-1.14305e-06
5.17548e-07
-1.39213e-06
6.51159e-07
-1.66176e-06
7.74414e-07
-1.94685e-06
8.83944e-07
-2.23963e-06
9.76846e-07
-2.52935e-06
1.05058e-06
-2.80368e-06
1.1029e-06
-3.05186e-06
1.13234e-06
-3.26731e-06
1.13899e-06
-3.44845e-06
1.12473e-06
-3.59793e-06
1.09285e-06
-3.72105e-06
1.04727e-06
-3.82408e-06
9.91935e-07
-3.91312e-06
9.30343e-07
-3.99328e-06
8.65375e-07
-4.06832e-06
7.99249e-07
-4.14069e-06
7.33568e-07
-4.21163e-06
6.6942e-07
-4.28148e-06
6.0748e-07
-4.34997e-06
5.48115e-07
-4.41642e-06
4.91466e-07
-4.47997e-06
4.37519e-07
-4.53969e-06
3.8616e-07
-4.5947e-06
3.3722e-07
-4.64418e-06
2.90502e-07
-4.68745e-06
2.45808e-07
-4.72393e-06
2.02952e-07
-4.75318e-06
1.61775e-07
-4.77486e-06
1.22144e-07
-4.78872e-06
8.39628e-08
-4.79464e-06
4.71613e-08
-4.79257e-06
1.1699e-08
-4.78256e-06
-2.24468e-08
-4.76479e-06
-5.52598e-08
-4.73947e-06
-8.66846e-08
-4.70686e-06
-1.16639e-07
-4.66729e-06
-1.45032e-07
-4.62108e-06
-1.71773e-07
-4.56863e-06
-1.96771e-07
-4.51037e-06
-2.1994e-07
-4.44674e-06
-2.41199e-07
-4.37825e-06
-2.60477e-07
-4.3054e-06
-2.77709e-07
-4.22871e-06
-2.92848e-07
-4.14872e-06
-3.05857e-07
-4.066e-06
-3.16715e-07
-3.98107e-06
-3.25418e-07
-3.89451e-06
-3.31975e-07
-3.80685e-06
-3.36416e-07
-3.71864e-06
-3.38785e-07
-3.63038e-06
-3.39139e-07
-3.54259e-06
-3.37554e-07
-3.45574e-06
-3.34116e-07
-3.37031e-06
-3.28925e-07
-3.28671e-06
-3.22092e-07
-3.20536e-06
-3.13735e-07
-3.12661e-06
-3.03983e-07
-3.05083e-06
-2.92969e-07
-2.9783e-06
-2.80832e-07
-2.90931e-06
-2.67715e-07
-2.84409e-06
-2.53762e-07
-2.78285e-06
-2.39123e-07
-2.72575e-06
-2.23945e-07
-2.67294e-06
-2.08379e-07
-2.62449e-06
-1.92574e-07
-2.58048e-06
-1.76682e-07
-2.5409e-06
-1.60852e-07
-2.50572e-06
-1.45229e-07
-2.47487e-06
-1.29954e-07
-2.44822e-06
-1.15162e-07
-2.42559e-06
-1.00976e-07
-2.40676e-06
-8.75073e-08
-2.39147e-06
-7.4851e-08
-2.37943e-06
-6.30864e-08
-2.37033e-06
-5.22743e-08
-2.36385e-06
-4.24574e-08
-2.35968e-06
-3.36599e-08
-2.3575e-06
-2.58872e-08
-2.35704e-06
-1.91259e-08
-2.35805e-06
-1.33438e-08
-2.36029e-06
-8.49154e-09
-2.36356e-06
-4.50142e-09
-2.3677e-06
-1.2934e-09
-2.37258e-06
1.22648e-09
-2.37807e-06
3.16349e-09
-2.38408e-06
4.62912e-09
-2.39051e-06
5.73081e-09
-2.39727e-06
6.5624e-09
-2.40427e-06
7.19817e-09
-2.41143e-06
7.6881e-09
-2.41864e-06
8.05698e-09
-2.42583e-06
8.29725e-09
-2.43288e-06
8.37188e-09
-2.43973e-06
8.23063e-09
-2.44625e-06
7.80855e-09
-2.45235e-06
7.02007e-09
-2.45788e-06
5.76411e-09
-2.4627e-06
3.92993e-09
-2.46662e-06
1.40503e-09
-2.46945e-06
-1.91929e-09
-2.47096e-06
-6.14232e-09
-2.47091e-06
-1.13485e-08
-2.46905e-06
-1.76027e-08
-2.46511e-06
-2.4946e-08
-2.45882e-06
-3.3393e-08
-2.44993e-06
-4.29305e-08
-2.43818e-06
-5.35181e-08