/*--------------------------------*- C++ -*----------------------------------*\
  =========                 |
  \\      /  F ield         | OpenFOAM: The Open Source CFD Toolbox
   \\    /   O peration     | Website:  https://openfoam.org
    \\  /    A nd           | Version:  9
     \\/     M anipulation  |
\*---------------------------------------------------------------------------*/
FoamFile
{
    format      ascii;
    class       volVectorField;
    location    "0.12";
    object      U;
}
// * * * * * * * * * * * * * * * * * * * * * * * * * * * * * * * * * * * * * //

dimensions      [0 1 -1 0 0 0 0];

internalField   nonuniform List<vector> 
12225
(
(0.946485 -0.265652 0)
(0.890352 -0.05729 0)
(0.750514 0.00865192 0)
(0.618591 0.0147116 0)
(0.538769 0.00947963 0)
(0.495419 0.00527657 0)
(0.46972 0.00366195 0)
(0.450385 0.00410623 0)
(0.427938 0.00617418 0)
(0.394635 0.00932942 0)
(0.346511 0.012636 0)
(0.284597 0.0149027 0)
(0.215666 0.0149717 0)
(0.149797 0.0120291 0)
(0.104767 0.00406833 0)
(0.0960725 -0.0146891 0)
(0.225626 -0.0678428 0)
(0.278015 0.0379731 0)
(1.01881 0.0924782 0)
(0.985546 0.0775336 0)
(0.919877 0.0460923 0)
(0.834171 0.0341021 0)
(0.760811 0.0239918 0)
(0.711169 0.0149266 0)
(0.681864 0.00950416 0)
(0.665093 0.00839424 0)
(0.651073 0.0114707 0)
(0.630063 0.01803 0)
(0.594147 0.026469 0)
(0.538825 0.0342499 0)
(0.465544 0.038243 0)
(0.382229 0.0352367 0)
(0.308637 0.0202149 0)
(0.260131 -0.0215892 0)
(0.30915 -0.0990782 0)
(0.213632 0.0891369 0)
(0.997942 0.0157674 0)
(0.985741 0.0450637 0)
(0.952802 0.0531751 0)
(0.894653 0.0495834 0)
(0.836552 0.037849 0)
(0.793806 0.0245834 0)
(0.768419 0.0151392 0)
(0.755723 0.0117469 0)
(0.747803 0.014999 0)
(0.736116 0.0244105 0)
(0.713012 0.0381843 0)
(0.672547 0.0529465 0)
(0.61228 0.0638107 0)
(0.53461 0.064747 0)
(0.452644 0.0474323 0)
(0.375312 -0.00562883 0)
(0.356635 -0.0905465 0)
(0.156041 0.132698 0)
(0.998651 0.00921965 0)
(0.98853 0.0466446 0)
(0.964467 0.063498 0)
(0.920456 0.0629199 0)
(0.874711 0.0502401 0)
(0.840049 0.0335207 0)
(0.819707 0.020219 0)
(0.810915 0.0143179 0)
(0.807494 0.0172876 0)
(0.802325 0.0289524 0)
(0.788729 0.0475207 0)
(0.760833 0.0692673 0)
(0.714392 0.0882814 0)
(0.647497 0.0963866 0)
(0.565648 0.0824168 0)
(0.469738 0.0279594 0)
(0.400505 -0.0510894 0)
(0.138503 0.17617 0)
(0.999395 0.0125145 0)
(0.989493 0.0522058 0)
(0.96885 0.0728526 0)
(0.933937 0.074372 0)
(0.897909 0.0609558 0)
(0.87063 0.0412154 0)
(0.855215 0.0242976 0)
(0.849915 0.0158004 0)
(0.849894 0.018097 0)
(0.84931 0.0313674 0)
(0.842519 0.0539383 0)
(0.82421 0.0820902 0)
(0.789524 0.109654 0)
(0.733882 0.127475 0)
(0.656505 0.122851 0)
(0.551243 0.078058 0)
(0.446932 0.0156557 0)
(0.158429 0.226884 0)
(0.999262 0.0154249 0)
(0.989186 0.0566777 0)
(0.970484 0.0807709 0)
(0.942081 0.0841374 0)
(0.913726 0.0699558 0)
(0.892814 0.047487 0)
(0.881852 0.0272489 0)
(0.879561 0.0162203 0)
(0.882088 0.0176201 0)
(0.884648 0.0319941 0)
(0.882524 0.0578514 0)
(0.871081 0.0916981 0)
(0.845491 0.127672 0)
(0.799917 0.156751 0)
(0.729405 0.166192 0)
(0.623048 0.139926 0)
(0.498552 0.101291 0)
(0.214726 0.289328 0)
(0.998939 0.0174879 0)
(0.988602 0.0607356 0)
(0.971234 0.0878635 0)
(0.947728 0.0925327 0)
(0.925511 0.0773902 0)
(0.909979 0.0523719 0)
(0.902881 0.0290971 0)
(0.903092 0.0156903 0)
(0.90746 0.0161211 0)
(0.912056 0.0312848 0)
(0.912953 0.0599033 0)
(0.906171 0.0988262 0)
(0.887235 0.142832 0)
(0.850075 0.183818 0)
(0.787652 0.210226 0)
(0.68687 0.20827 0)
(0.555971 0.198049 0)
(0.297967 0.364071 0)
(0.998738 0.0195598 0)
(0.988196 0.0650282 0)
(0.971869 0.0944779 0)
(0.952208 0.0997876 0)
(0.934977 0.0834197 0)
(0.923946 0.0559554 0)
(0.920101 0.0299071 0)
(0.922299 0.0143315 0)
(0.927896 0.0138341 0)
(0.933662 0.0296245 0)
(0.936347 0.0606447 0)
(0.932586 0.10414 0)
(0.918412 0.155681 0)
(0.888166 0.208509 0)
(0.834354 0.253004 0)
(0.743918 0.278072 0)
(0.618134 0.298915 0)
(0.395198 0.448844 0)
(0.998677 0.0218567 0)
(0.988113 0.0696374 0)
(0.97274 0.100722 0)
(0.956221 0.106045 0)
(0.943087 0.0881726 0)
(0.935783 0.058329 0)
(0.934587 0.0297651 0)
(0.93826 0.0122744 0)
(0.944542 0.0109724 0)
(0.950795 0.0273315 0)
(0.954376 0.0605023 0)
(0.952511 0.108133 0)
(0.941831 0.166614 0)
(0.917435 0.230647 0)
(0.872425 0.292835 0)
(0.795288 0.344916 0)
(0.683234 0.397364 0)
(0.497734 0.539622 0)
(0.998708 0.0242904 0)
(0.98838 0.0744606 0)
(0.974016 0.106618 0)
(0.960153 0.111395 0)
(0.950404 0.0917508 0)
(0.946136 0.0595885 0)
(0.947004 0.0287759 0)
(0.951652 0.00966266 0)
(0.958132 0.00773715 0)
(0.964335 0.0246667 0)
(0.968195 0.0597812 0)
(0.967531 0.111105 0)
(0.95963 0.175795 0)
(0.940513 0.249928 0)
(0.904429 0.32823 0)
(0.842149 0.405099 0)
(0.749455 0.48743 0)
(0.601977 0.630768 0)
(0.998791 0.026777 0)
(0.988967 0.0793982 0)
(0.97575 0.112176 0)
(0.96421 0.115923 0)
(0.957261 0.0942784 0)
(0.955405 0.0598773 0)
(0.957775 0.0271068 0)
(0.962913 0.00669749 0)
(0.969158 0.0043672 0)
(0.974899 0.0218913 0)
(0.978644 0.0587278 0)
(0.978819 0.113227 0)
(0.973409 0.183212 0)
(0.959416 0.265932 0)
(0.932449 0.357903 0)
(0.885707 0.455708 0)
(0.815335 0.563923 0)
(0.705934 0.714909 0)
(0.998891 0.0290148 0)
(0.989756 0.0838874 0)
(0.977767 0.116909 0)
(0.968163 0.119355 0)
(0.963348 0.0957204 0)
(0.963201 0.0593745 0)
(0.966474 0.0251008 0)
(0.97166 0.00382559 0)
(0.977359 0.0013318 0)
(0.982415 0.019399 0)
(0.985869 0.0575406 0)
(0.986724 0.114343 0)
(0.983628 0.18813 0)
(0.974482 0.277012 0)
(0.956156 0.378765 0)
(0.923928 0.491409 0)
(0.875127 0.618256 0)
(0.800447 0.778403 0)
(0.998986 0.0312058 0)
(0.990692 0.0882484 0)
(0.980083 0.121271 0)
(0.97229 0.122191 0)
(0.969288 0.0965168 0)
(0.97046 0.0583811 0)
(0.974263 0.0228942 0)
(0.979195 0.00104721 0)
(0.984131 -0.00143886 0)
(0.988373 0.0171277 0)
(0.991492 0.0562526 0)
(0.993066 0.114687 0)
(0.9924 0.191139 0)
(0.988248 0.284364 0)
(0.978628 0.393028 0)
(0.960584 0.516016 0)
(0.932612 0.655576 0)
(0.889988 0.822706 0)
(0.999091 0.0335193 0)
(0.991928 0.0928929 0)
(0.983098 0.125626 0)
(0.977311 0.124581 0)
(0.976067 0.0965769 0)
(0.978312 0.0566427 0)
(0.982292 0.020168 0)
(0.986589 -0.00195517 0)
(0.990441 -0.00424922 0)
(0.993682 0.014747 0)
(0.996486 0.0544366 0)
(0.999082 0.113666 0)
(1.00151 0.191446 0)
(1.00345 0.287042 0)
(1.00406 0.399778 0)
(1.00198 0.529068 0)
(0.996594 0.676035 0)
(0.986046 0.846208 0)
(0.999212 0.0358586 0)
(0.99349 0.097525 0)
(0.9869 0.129608 0)
(0.983372 0.126199 0)
(0.983818 0.0957194 0)
(0.986822 0.054189 0)
(0.990543 0.0171679 0)
(0.993785 -0.00479358 0)
(0.996264 -0.00671995 0)
(0.998425 0.0124202 0)
(1.0011 0.0517897 0)
(1.00522 0.110214 0)
(1.01161 0.186867 0)
(1.0209 0.281329 0)
(1.03339 0.393338 0)
(1.04903 0.522627 0)
(1.06792 0.669518 0)
(1.08926 0.836187 0)
(0.999364 0.0380103 0)
(0.995435 0.10155 0)
(0.991625 0.132521 0)
(0.990721 0.12649 0)
(0.992862 0.0936938 0)
(0.996341 0.051123 0)
(0.999416 0.0142858 0)
(1.0013 -0.00695654 0)
(1.00231 -0.00847051 0)
(1.00359 0.0100974 0)
(1.00663 0.0474977 0)
(1.01306 0.102364 0)
(1.02448 0.173818 0)
(1.04241 0.261474 0)
(1.06827 0.365215 0)
(1.10316 0.485064 0)
(1.1478 0.621353 0)
(1.20172 0.775118 0)
(0.99957 0.0396095 0)
(0.997882 0.103973 0)
(0.997498 0.133197 0)
(0.99973 0.124554 0)
(1.00374 0.0901129 0)
(1.00762 0.0475935 0)
(1.00995 0.0120096 0)
(1.01054 -0.00793569 0)
(1.01046 -0.00934059 0)
(1.01154 0.00721735 0)
(1.01591 0.0399002 0)
(1.02579 0.0869485 0)
(1.04341 0.147127 0)
(1.07102 0.219744 0)
(1.11086 0.304419 0)
(1.16497 0.401433 0)
(1.23469 0.512004 0)
(1.32011 0.638337 0)
(0.999872 0.0400082 0)
(1.00099 0.103148 0)
(1.00475 0.129705 0)
(1.01073 0.118842 0)
(1.01701 0.0841219 0)
(1.02159 0.0433525 0)
(1.0236 0.0103344 0)
(1.02366 -0.00799898 0)
(1.02354 -0.0103636 0)
(1.02568 0.00154308 0)
(1.03271 0.0251928 0)
(1.04719 0.0582611 0)
(1.07174 0.0988898 0)
(1.10875 0.145634 0)
(1.16055 0.197691 0)
(1.22956 0.25547 0)
(1.31716 0.321438 0)
(1.42448 0.400338 0)
(1.00034 0.0381431 0)
(1.00485 0.0965486 0)
(1.01335 0.119141 0)
(1.02356 0.106923 0)
(1.03257 0.0740205 0)
(1.03854 0.0371692 0)
(1.04125 0.00799408 0)
(1.04198 -0.00898756 0)
(1.043 -0.014412 0)
(1.04701 -0.0111691 0)
(1.05671 -0.00243928 0)
(1.07452 0.00901245 0)
(1.10255 0.0208565 0)
(1.14284 0.0310998 0)
(1.19716 0.0385318 0)
(1.26698 0.0435255 0)
(1.3534 0.0492129 0)
(1.45873 0.0620075 0)
(1.00075 0.0341418 0)
(1.00817 0.0852088 0)
(1.02063 0.103638 0)
(1.03434 0.0914298 0)
(1.04583 0.0619532 0)
(1.05352 0.0300563 0)
(1.05752 0.00513345 0)
(1.05919 -0.0103302 0)
(1.06066 -0.0184272 0)
(1.06438 -0.0227923 0)
(1.07262 -0.0267661 0)
(1.08726 -0.0329203 0)
(1.10964 -0.0432907 0)
(1.14068 -0.0595937 0)
(1.18093 -0.0832012 0)
(1.23086 -0.11425 0)
(1.29085 -0.15048 0)
(1.3633 -0.186299 0)
(1.00101 0.0294793 0)
(1.01048 0.0730382 0)
(1.02575 0.0879112 0)
(1.04198 0.0761425 0)
(1.05549 0.0497982 0)
(1.06491 0.0220861 0)
(1.07042 0.00084893 0)
(1.07312 -0.0127358 0)
(1.07479 -0.0216923 0)
(1.07748 -0.0300698 0)
(1.08305 -0.0410892 0)
(1.09287 -0.0568049 0)
(1.10763 -0.0785287 0)
(1.12741 -0.1073 0)
(1.15178 -0.144034 0)
(1.18014 -0.189132 0)
(1.21191 -0.241582 0)
(1.24836 -0.297808 0)
(1.0012 0.0244634 0)
(1.01228 0.0603998 0)
(1.02979 0.0720202 0)
(1.04813 0.0608138 0)
(1.06348 0.0373146 0)
(1.07459 0.013364 0)
(1.08152 -0.00429381 0)
(1.08504 -0.0154193 0)
(1.08651 -0.0237403 0)
(1.08758 -0.0336099 0)
(1.0897 -0.0480615 0)
(1.0938 -0.0685436 0)
(1.10013 -0.0955292 0)
(1.10826 -0.129198 0)
(1.11724 -0.169812 0)
(1.12594 -0.21764 0)
(1.1332 -0.272426 0)
(1.13923 -0.332387 0)
(1.00129 0.0194575 0)
(1.01358 0.0479531 0)
(1.03304 0.0565983 0)
(1.05323 0.0459316 0)
(1.07019 0.024941 0)
(1.08267 0.00440257 0)
(1.09056 -0.00971573 0)
(1.09438 -0.0178866 0)
(1.09521 -0.0243801 0)
(1.09437 -0.033747 0)
(1.0929 -0.0487925 0)
(1.09134 -0.0703805 0)
(1.08959 -0.0982127 0)
(1.08696 -0.131699 0)
(1.08238 -0.170502 0)
(1.07462 -0.214667 0)
(1.06244 -0.26434 0)
(1.04549 -0.319005 0)
(1.00121 0.0146731 0)
(1.01433 0.0359855 0)
(1.03563 0.0419262 0)
(1.05755 0.031798 0)
(1.07576 0.0131294 0)
(1.08896 -0.00412942 0)
(1.09693 -0.014691 0)
(1.10021 -0.0196478 0)
(1.0999 -0.0236512 0)
(1.09704 -0.0312787 0)
(1.09227 -0.04503 0)
(1.08564 -0.0652504 0)
(1.0767 -0.0910567 0)
(1.06467 -0.12133 0)
(1.04858 -0.155347 0)
(1.02742 -0.192989 0)
(1.00022 -0.234608 0)
(0.966472 -0.28045 0)
(1.00094 0.0104027 0)
(1.01446 0.0245805 0)
(1.03766 0.028085 0)
(1.06118 0.0186344 0)
(1.08005 0.00236729 0)
(1.09287 -0.0115007 0)
(1.09958 -0.0184685 0)
(1.10119 -0.0202452 0)
(1.0991 -0.021656 0)
(1.09424 -0.0270389 0)
(1.08668 -0.0384446 0)
(1.07588 -0.0557604 0)
(1.061 -0.0777534 0)
(1.0412 -0.103084 0)
(1.01574 -0.130902 0)
(0.984055 -0.161039 0)
(0.945564 -0.19393 0)
(0.899853 -0.230214 0)
(1.0002 0.00771964 0)
(1.01367 0.014092 0)
(1.03909 0.0152052 0)
(1.06389 0.0067123 0)
(1.08231 -0.00677512 0)
(1.09305 -0.0169404 0)
(1.09667 -0.0203401 0)
(1.09521 -0.0192955 0)
(1.09069 -0.0185123 0)
(1.08388 -0.0217481 0)
(1.07418 -0.0304274 0)
(1.06028 -0.0440412 0)
(1.0409 -0.0612552 0)
(1.01517 -0.0808228 0)
(0.982687 -0.102014 0)
(0.943335 -0.124698 0)
(0.896973 -0.149296 0)
(0.843308 -0.17655 0)
(0.997985 0.00796373 0)
(1.01107 0.00516279 0)
(1.03945 0.00376594 0)
(1.06457 -0.00347885 0)
(1.08038 -0.013598 0)
(1.08643 -0.0196745 0)
(1.08466 -0.0197342 0)
(1.0787 -0.0165874 0)
(1.07129 -0.0144035 0)
(1.06276 -0.0159971 0)
(1.0516 -0.0220383 0)
(1.03572 -0.0317255 0)
(1.01343 -0.04386 0)
(0.983891 -0.0575401 0)
(0.947024 -0.0723283 0)
(0.90309 -0.0881783 0)
(0.852272 -0.105396 0)
(0.794345 -0.124596 0)
(0.993369 0.00591145 0)
(1.00593 0.00114368 0)
(1.0367 -0.00389632 0)
(1.05914 -0.0111259 0)
(1.06822 -0.0175532 0)
(1.06564 -0.0192474 0)
(1.05591 -0.0164848 0)
(1.0445 -0.0122792 0)
(1.03432 -0.00970928 0)
(1.02467 -0.0103371 0)
(1.01288 -0.0140888 0)
(0.996196 -0.0200574 0)
(0.972823 -0.0273808 0)
(0.942065 -0.03563 0)
(0.904022 -0.0447082 0)
(0.859099 -0.0546453 0)
(0.807577 -0.0655754 0)
(0.749216 -0.0778347 0)
(1.00778 -0.072948 0)
(1.01021 -0.0550707 0)
(1.02517 -0.0239184 0)
(1.03259 -0.0182012 0)
(1.02582 -0.0185604 0)
(1.00885 -0.0158644 0)
(0.989265 -0.0111035 0)
(0.973066 -0.0069687 0)
(0.961547 -0.00496032 0)
(0.952066 -0.00521838 0)
(0.940832 -0.0070828 0)
(0.924981 -0.00980011 0)
(0.903115 -0.0129944 0)
(0.874847 -0.0166969 0)
(0.84021 -0.0210725 0)
(0.79931 -0.0261907 0)
(0.752183 -0.0320348 0)
(0.69848 -0.0386472 0)
(0.974552 0.221489 0)
(0.991868 0.0601019 0)
(0.950702 0.00413147 0)
(0.890751 -0.00756336 0)
(0.840147 -0.00895315 0)
(0.803736 -0.00664939 0)
(0.780473 -0.00381332 0)
(0.767325 -0.00219242 0)
(0.759638 -0.00199085 0)
(0.752911 -0.00265934 0)
(0.744341 -0.00360442 0)
(0.732931 -0.0045454 0)
(0.718539 -0.00555013 0)
(0.700904 -0.00685654 0)
(0.679351 -0.00864856 0)
(0.653052 -0.0109523 0)
(0.621367 -0.0136723 0)
(0.583842 -0.0166357 0)
(0.13051 -0.246917 9.28085e-22)
(0.353151 -0.391044 -7.85892e-22)
(0.629848 -0.406475 0)
(0.875484 -0.362036 0)
(1.06458 -0.295249 0)
(1.19617 -0.222269 -1.59991e-21)
(1.27392 -0.148732 0)
(1.30596 -0.0753295 0)
(1.28381 -0.00579924 0)
(1.21423 0.0542345 0)
(1.10924 0.0996876 2.24345e-21)
(0.98162 0.127615 0)
(0.843485 0.137915 0)
(0.703085 0.133021 0)
(0.561317 0.118758 0)
(0.412523 0.105304 2.00534e-21)
(0.247681 0.107215 0)
(0.0566653 0.136645 0)
(-0.171447 0.188951 0)
(-0.436622 0.245134 0)
(-0.730275 0.293373 0)
(-1.04267 0.328571 0)
(-1.36383 0.349389 0)
(-1.68466 0.356523 5.712e-21)
(-1.99747 0.351817 -6.50902e-21)
(-2.29615 0.337673 7.33227e-21)
(-2.57624 0.316621 8.15688e-21)
(-2.83476 0.291019 0)
(-3.07001 0.262876 0)
(-3.28138 0.233775 -1.04665e-20)
(-3.46902 0.204882 -1.11473e-20)
(-3.63367 0.176996 0)
(-3.77643 0.150611 0)
(-3.89856 0.125994 -1.28693e-20)
(-4.0014 0.10326 0)
(-4.08628 0.0824412 0)
(-4.15444 0.0635254 1.41136e-20)
(-4.20712 0.0464936 0)
(-4.24544 0.0313983 1.46967e-20)
(-4.27026 0.01836 2.98383e-20)
(-4.28264 0.00735442 0)
(-4.2835 -0.00170619 0)
(-4.2761 -0.00901927 0)
(-4.26072 -0.0152898 0)
(-4.23814 -0.0208451 0)
(-4.20896 -0.0258374 3.03933e-20)
(-4.17372 -0.0303408 3.01802e-20)
(-4.13289 -0.0343917 2.98923e-20)
(-4.08693 -0.0380081 0)
(-4.03629 -0.0411996 -2.91115e-20)
(-3.98143 -0.0439725 0)
(-3.92283 -0.0463325 2.8091e-20)
(-3.86095 -0.0482863 2.7504e-20)
(-3.79625 -0.0498425 0)
(-3.72921 -0.0510121 0)
(-3.66031 -0.0518085 0)
(-3.58999 -0.0522481 2.47713e-20)
(-3.5187 -0.0523495 0)
(-3.44689 -0.0521342 0)
(-3.37497 -0.0516255 0)
(-3.30334 -0.050849 0)
(-3.23237 -0.0498319 0)
(-3.16241 -0.0486026 0)
(-3.09378 -0.0471904 0)
(-3.02677 -0.045625 0)
(-2.96164 -0.0439359 -1.78074e-20)
(-2.89861 -0.0421516 0)
(-2.83789 -0.0402989 0)
(-2.77962 -0.0384018 1.56747e-20)
(-2.72396 -0.0364803 1.50149e-20)
(-2.67101 -0.0345499 0)
(-2.62085 -0.0326207 -1.37853e-20)
(-2.57356 -0.0306974 1.32186e-20)
(-2.52917 -0.0287798 0)
(-2.48774 -0.0268642 -1.2187e-20)
(-2.44928 -0.0249449 0)
(-2.41383 -0.0230161 0)
(-2.38139 -0.0210733 1.09026e-20)
(-2.35196 -0.0191148 0)
(-2.32553 -0.0171419 -1.02239e-20)
(-2.30208 -0.0151593 0)
(-2.28154 -0.0131751 9.68546e-21)
(-2.26384 -0.0112013 9.46723e-21)
(-2.24889 -0.00925494 9.28178e-21)
(-2.23656 -0.00735687 1.82558e-20)
(-2.2267 -0.0055279 -1.80085e-20)
(-2.21913 -0.0037893 0)
(-2.21367 -0.00216646 0)
(-2.21011 -0.000690617 0)
(-2.20822 0.00060815 -1.75608e-20)
(-2.20775 0.00168936 -1.75672e-20)
(-2.20847 0.0025239 1.76135e-20)
(-2.21006 0.00310754 0)
(-2.2123 0.00334573 -1.78076e-20)
(-2.21493 0.00326424 -1.79513e-20)
(-2.21769 0.00293226 -1.81221e-20)
(-2.22031 0.00243003 0)
(-2.22263 0.00184143 0)
(-2.22452 0.00126758 0)
(-2.22595 0.000829771 -1.90106e-20)
(-2.22717 0.000669322 0)
(-2.22846 0.00068796 0)
(-2.22987 0.000730223 1.97809e-20)
(-2.23134 0.000751257 0)
(-2.23283 0.000739374 0)
(-2.23424 0.000671924 2.05146e-20)
(-2.23542 0.000531924 0)
(-2.23621 0.000304766 0)
(-2.2364 -2.27427e-05 -2.11016e-20)
(-2.23577 -0.000461122 -2.12459e-20)
(-2.23407 -0.00101813 0)
(-2.23103 -0.00169838 2.14342e-20)
(-2.22637 -0.00250316 0)
(-2.21981 -0.00343044 -2.14647e-20)
(-2.21108 -0.00447494 0)
(-2.1999 -0.00562847 -2.13125e-20)
(-2.18602 -0.00688032 -2.11614e-20)
(-2.16922 -0.00821772 0)
(-2.1493 -0.00962646 0)
(-2.12608 -0.0110914 0)
(-2.09944 -0.0125972 0)
(-2.06926 -0.0141287 0)
(-2.03547 -0.0156716 0)
(-1.99805 -0.0172127 0)
(-1.95698 -0.0187404 -1.80175e-20)
(-1.91229 -0.0202449 1.73898e-20)
(-1.86401 -0.0217183 0)
(-1.81222 -0.0231548 0)
(-1.75698 -0.0245504 0)
(-1.6984 -0.0259031 0)
(-1.63656 -0.0272127 2.72496e-20)
(-1.57156 -0.0284802 0)
(-1.5035 -0.0297084 -2.37875e-20)
(-1.43247 -0.0309006 2.19928e-20)
(-1.35856 -0.0320612 0)
(-1.28183 -0.0331949 0)
(-1.20237 -0.034306 0)
(-1.12023 -0.0353961 -1.45997e-20)
(-1.03546 -0.036464 -1.27455e-20)
(-0.948114 -0.0375213 0)
(-0.85823 -0.038622 -9.10062e-21)
(-0.765744 -0.0398658 -7.33237e-21)
(-0.670452 -0.0412948 5.6153e-21)
(-0.572571 -0.0426305 0)
(-0.472614 -0.0435335 0)
(-0.370137 -0.0448957 8.91705e-22)
(-0.266288 -0.0457943 0)
(-0.161966 -0.0448772 0)
(-0.0554858 -0.0448464 0)
(0.0524142 -0.0446502 0)
(0.160227 -0.046275 4.55352e-21)
(0.270892 -0.0420309 5.05017e-21)
(0.380534 -0.0410525 0)
(0.488144 -0.0428593 5.44453e-21)
(0.59626 -0.0413267 0)
(0.702596 -0.0418772 0)
(0.807257 -0.0324595 5.06493e-21)
(0.906547 -0.0273707 0)
(1.00005 -0.0279211 4.07352e-21)
(1.0885 -0.0200539 0)
(1.16872 -0.0210905 0)
(1.24149 -0.0189123 2.35254e-21)
(1.30457 -0.00412842 0)
(1.35556 -0.000969043 9.29821e-22)
(1.3946 0.00243839 0)
(1.42094 0.00663199 0)
(1.43196 0.00570757 0)
(1.42783 0.00931522 9.78838e-22)
(1.40923 0.0140915 0)
(1.37739 0.017788 -1.49441e-21)
(1.33388 0.0202137 0)
(1.28036 0.0222533 0)
(1.21949 0.0234641 0)
(1.15354 0.0232223 0)
(1.08495 0.0216842 0)
(1.01541 0.019385 0)
(0.946056 0.0169449 0)
(0.875925 0.0149739 1.29491e-22)
(0.810916 0.0145105 0)
(0.717797 0.0181261 0)
(0.207057 -0.804778 -1.88624e-22)
(0.376704 -0.921351 1.25692e-23)
(0.544364 -0.781795 0)
(0.660634 -0.601997 2.28848e-21)
(0.727128 -0.427238 0)
(0.755579 -0.265054 1.30635e-21)
(0.75146 -0.115711 -4.29202e-21)
(0.714328 0.0218118 -4.62842e-21)
(0.656963 0.144849 0)
(0.574002 0.249784 -4.48189e-21)
(0.459815 0.332078 -1.92841e-21)
(0.310444 0.389678 0)
(0.122796 0.427373 0)
(-0.10366 0.459216 0)
(-0.368686 0.504315 0)
(-0.670691 0.570294 -1.35442e-21)
(-1.00386 0.652126 0)
(-1.35546 0.736468 2.81408e-21)
(-1.71033 0.808176 0)
(-2.05565 0.856782 0)
(-2.38217 0.878551 -4.90672e-21)
(-2.68368 0.87443 0)
(-2.95618 0.848054 7.08312e-21)
(-3.19778 0.804315 -3.6236e-21)
(-3.40841 0.748368 4.26216e-21)
(-3.58947 0.684983 -4.94046e-21)
(-3.74335 0.618185 -5.6364e-21)
(-3.87299 0.551107 0)
(-3.9815 0.485998 0)
(-4.07189 0.42432 7.64503e-21)
(-4.14686 0.366895 -9.05699e-21)
(-4.20875 0.314058 0)
(-4.25948 0.265803 0)
(-4.3006 0.221904 9.74137e-21)
(-4.33334 0.182013 0)
(-4.35865 0.145733 0)
(-4.37731 0.112678 -1.07714e-20)
(-4.38992 0.0825078 0)
(-4.39699 0.054995 1.16861e-20)
(-4.39899 0.0300473 -2.27598e-20)
(-4.39616 0.00760584 0)
(-4.38863 -0.0124908 0)
(-4.37435 -0.0304542 -4.71032e-20)
(-4.3536 -0.0466926 -4.70517e-20)
(-4.32647 -0.0614687 -4.6873e-20)
(-4.29317 -0.0749324 2.3717e-20)
(-4.25404 -0.0871664 -2.26439e-20)
(-4.20947 -0.0982146 -6.80186e-20)
(-4.15985 -0.1081 4.50207e-20)
(-4.10563 -0.116837 2.17126e-20)
(-4.04725 -0.124434 0)
(-3.98519 -0.130904 -2.0891e-20)
(-3.91991 -0.136261 2.13038e-20)
(-3.85191 -0.140525 0)
(-3.78165 -0.143721 0)
(-3.70965 -0.145882 0)
(-3.63637 -0.147047 -1.83874e-20)
(-3.56229 -0.14726 0)
(-3.4879 -0.146571 3.5319e-20)
(-3.41363 -0.145037 0)
(-3.33994 -0.142718 3.3041e-20)
(-3.26725 -0.139679 0)
(-3.19595 -0.135986 -3.0791e-20)
(-3.12642 -0.13171 0)
(-3.059 -0.126922 2.86197e-20)
(-2.99403 -0.121693 -1.40158e-20)
(-2.93177 -0.116096 0)
(-2.87248 -0.110203 -2.56034e-20)
(-2.81639 -0.104084 -1.21792e-20)
(-2.76366 -0.0978067 -1.1761e-20)
(-2.71444 -0.0914372 0)
(-2.6688 -0.0850364 -1.11837e-20)
(-2.6268 -0.0786601 -1.06402e-20)
(-2.58843 -0.0723573 0)
(-2.55364 -0.0661688 9.99952e-21)
(-2.52235 -0.0601272 -1.94667e-20)
(-2.49442 -0.054257 0)
(-2.46972 -0.048577 -9.18487e-21)
(-2.44808 -0.043103 0)
(-2.42931 -0.0378505 2.61711e-20)
(-2.41324 -0.0328373 0)
(-2.39966 -0.0280849 -2.50503e-20)
(-2.38839 -0.0236181 -8.22196e-21)
(-2.3792 -0.0194641 8.01434e-21)
(-2.37188 -0.0156509 1.58118e-20)
(-2.3662 -0.0122034 -1.56435e-20)
(-2.36193 -0.00914017 0)
(-2.35882 -0.00647161 0)
(-2.35664 -0.00420022 0)
(-2.35516 -0.00231465 4.65327e-20)
(-2.35416 -0.000796811 1.55912e-20)
(-2.35347 0.000385502 -1.56583e-20)
(-2.35297 0.00126933 0)
(-2.35253 0.00183364 -1.57798e-20)
(-2.35213 0.00210988 1.60261e-20)
(-2.35187 0.0021634 1.61968e-20)
(-2.35185 0.00207121 0)
(-2.35222 0.00191161 0)
(-2.35309 0.00174303 0)
(-2.35453 0.00163176 1.70372e-20)
(-2.35636 0.0016563 0)
(-2.35835 0.00176409 -3.49915e-20)
(-2.36038 0.00185227 -5.32001e-20)
(-2.36237 0.0018626 3.5928e-20)
(-2.36421 0.0017546 0)
(-2.36579 0.00148358 1.84099e-20)
(-2.36694 0.00101032 0)
(-2.36748 0.000299889 3.75254e-20)
(-2.3672 -0.000677953 -1.89454e-20)
(-2.36588 -0.00194705 -1.90748e-20)
(-2.36326 -0.00352396 0)
(-2.35908 -0.00541704 -5.74928e-20)
(-2.35307 -0.00762608 3.84065e-20)
(-2.34495 -0.0101422 1.91104e-20)
(-2.33445 -0.0129482 0)
(-2.32132 -0.0160194 1.89241e-20)
(-2.30533 -0.0193247 5.64884e-20)
(-2.28625 -0.0228276 0)
(-2.2639 -0.0264882 3.68309e-20)
(-2.23813 -0.0302642 3.62385e-20)
(-2.2088 -0.034113 3.55496e-20)
(-2.17582 -0.0379928 0)
(-2.13914 -0.041864 0)
(-2.09874 -0.0456904 0)
(-2.05461 -0.0494401 -1.6106e-20)
(-2.00678 -0.0530861 -1.51845e-20)
(-1.95531 -0.0566065 0)
(-1.90027 -0.0599849 -2.82335e-20)
(-1.84174 -0.0632105 -2.68841e-20)
(-1.77983 -0.0662771 0)
(-1.71464 -0.0691837 -2.35832e-20)
(-1.64627 -0.0719329 -4.50249e-20)
(-1.57484 -0.0745313 2.05129e-20)
(-1.50044 -0.0769878 1.98711e-20)
(-1.42317 -0.0793135 0)
(-1.34313 -0.0815204 0)
(-1.26038 -0.083621 0)
(-1.17501 -0.0856262 1.24719e-20)
(-1.08706 -0.0875464 -1.19172e-20)
(-0.996572 -0.0894 -1.96351e-20)
(-0.903605 -0.0912159 7.72733e-21)
(-0.808233 -0.0929945 -7.32592e-21)
(-0.710547 -0.0946733 -4.74847e-21)
(-0.610629 -0.0961663 0)
(-0.508536 -0.0973708 0)
(-0.404342 -0.0982151 1.92875e-21)
(-0.298287 -0.0985742 0)
(-0.19056 -0.0991997 0)
(-0.0810596 -0.100022 3.72218e-21)
(0.0299337 -0.0998545 0)
(0.141422 -0.0992539 2.75899e-21)
(0.253705 -0.100023 -4.32038e-21)
(0.366789 -0.0973329 0)
(0.47898 -0.0950442 3.71239e-21)
(0.590389 -0.0931836 0)
(0.699784 -0.0906263 0)
(0.807156 -0.0887543 -4.42896e-21)
(0.911829 -0.08376 7.51307e-21)
(1.01213 -0.078284 -3.64109e-21)
(1.10759 -0.0724349 0)
(1.19682 -0.0644032 0)
(1.2786 -0.0570585 1.49537e-21)
(1.35262 -0.0506524 0)
(1.4174 -0.0413987 7.66407e-22)
(1.47228 -0.0315845 0)
(1.51611 -0.0212352 0)
(1.55037 -0.00919646 0)
(1.57531 0.00273038 -8.91417e-22)
(1.58848 0.0128879 0)
(1.58853 0.0220084 1.36149e-21)
(1.57473 0.0302116 0)
(1.54691 0.0372429 0)
(1.50532 0.0424608 -2.89306e-21)
(1.4511 0.0458635 2.60214e-21)
(1.38659 0.0477874 0)
(1.3147 0.048544 0)
(1.23883 0.0485131 0)
(1.1605 0.0480022 -4.54811e-22)
(1.08722 0.0489602 0)
(1.00038 0.0521533 -2.98452e-21)
(0.162641 -1.31865 -3.13195e-22)
(0.195496 -1.20284 1.30827e-21)
(0.233676 -0.912186 0)
(0.237299 -0.654515 -4.41246e-21)
(0.213478 -0.424102 0)
(0.165982 -0.212528 0)
(0.0941009 -0.016121 3.27533e-22)
(-0.00414049 0.167887 4.47241e-21)
(-0.129995 0.342139 3.95794e-21)
(-0.284299 0.505294 3.99324e-21)
(-0.468436 0.653564 0)
(-0.68468 0.785099 0)
(-0.934704 0.90327 -2.49298e-21)
(-1.21651 1.01445 -4.55919e-21)
(-1.52242 1.12161 4.48482e-21)
(-1.83969 1.22031 0)
(-2.15301 1.30135 5.45155e-21)
(-2.44793 1.35578 -2.05683e-21)
(-2.714 1.37823 0)
(-2.94629 1.36782 9.31417e-21)
(-3.14453 1.32743 3.8072e-21)
(-3.31152 1.26247 -1.29262e-20)
(-3.45175 1.17949 -5.64205e-21)
(-3.57029 1.08504 0)
(-3.67199 0.984979 1.88961e-20)
(-3.76102 0.884061 2.0866e-20)
(-3.84063 0.785808 0)
(-3.9131 0.69258 2.4605e-20)
(-3.97988 0.605743 0)
(-4.04176 0.52589 2.79748e-20)
(-4.09902 0.453054 1.39289e-20)
(-4.15163 0.386903 0)
(-4.19935 0.326898 0)
(-4.24188 0.272411 0)
(-4.27888 0.222808 0)
(-4.31006 0.177492 0)
(-4.33512 0.135928 0)
(-4.35382 0.0976431 3.68674e-20)
(-4.36594 0.0622191 -5.5678e-20)
(-4.37127 0.0292675 0)
(-4.36968 -0.00155137 0)
(-4.3611 -0.030493 0)
(-4.34561 -0.0576873 -9.45449e-22)
(-4.32346 -0.0830603 3.72074e-20)
(-4.2949 -0.106573 7.49511e-20)
(-4.26022 -0.128217 -7.43592e-20)
(-4.21973 -0.147992 -3.72476e-20)
(-4.17381 -0.165898 3.58822e-20)
(-4.12283 -0.181932 8.75913e-22)
(-4.06722 -0.196094 3.56063e-20)
(-4.00743 -0.208389 0)
(-3.9439 -0.218827 3.41931e-20)
(-3.87712 -0.227427 7.90085e-22)
(-3.80756 -0.234219 0)
(-3.73571 -0.239242 0)
(-3.66206 -0.242549 -3.08601e-20)
(-3.5871 -0.2442 0)
(-3.51132 -0.244269 0)
(-3.43519 -0.242838 2.8734e-20)
(-3.35916 -0.239997 5.44232e-20)
(-3.28369 -0.235846 -2.5766e-20)
(-3.2092 -0.230489 0)
(-3.1361 -0.224037 2.4044e-20)
(-3.06477 -0.216604 0)
(-2.99556 -0.208308 2.31636e-20)
(-2.9288 -0.199267 2.16181e-20)
(-2.86479 -0.189601 -4.23518e-20)
(-2.8038 -0.179428 -2.06969e-20)
(-2.74607 -0.168864 0)
(-2.69178 -0.158025 3.80701e-20)
(-2.64113 -0.147021 0)
(-2.59423 -0.135959 5.32924e-20)
(-2.55118 -0.124939 3.45215e-20)
(-2.51205 -0.114055 3.35048e-20)
(-2.47684 -0.103393 -3.25684e-20)
(-2.44552 -0.0930285 4.75427e-20)
(-2.418 -0.083027 0)
(-2.39416 -0.0734437 0)
(-2.37382 -0.0643245 -2.95689e-20)
(-2.35676 -0.0557076 -4.3557e-20)
(-2.34272 -0.0476254 0)
(-2.33144 -0.0401069 1.41166e-20)
(-2.32263 -0.0331786 0)
(-2.31599 -0.0268646 -4.11673e-20)
(-2.31125 -0.0211858 -2.21564e-22)
(-2.30813 -0.0161573 2.2247e-22)
(-2.30637 -0.0117869 2.68778e-20)
(-2.30575 -0.00807288 0)
(-2.30604 -0.00500122 -2.68799e-20)
(-2.30707 -0.00254357 -1.90238e-22)
(-2.30868 -0.000650227 0)
(-2.31078 0.000741688 0)
(-2.31331 0.00170763 0)
(-2.31623 0.00237226 2.8002e-20)
(-2.31951 0.00282506 0)
(-2.32315 0.00314511 0)
(-2.32712 0.00340349 0)
(-2.33143 0.00365793 0)
(-2.33605 0.0039335 0)
(-2.34088 0.0042207 3.02683e-20)
(-2.34582 0.00445334 0)
(-2.35077 0.00459245 3.12089e-20)
(-2.35563 0.0046091 3.1644e-20)
(-2.36033 0.00445689 -3.20648e-20)
(-2.36475 0.00407733 0)
(-2.36875 0.00341089 -3.28321e-20)
(-2.37219 0.00239946 0)
(-2.37487 0.000989774 -3.34598e-20)
(-2.37659 -0.000863922 3.37051e-20)
(-2.37712 -0.00319739 1.01897e-19)
(-2.37621 -0.0060345 0)
(-2.3736 -0.0093859 1.02569e-19)
(-2.36902 -0.0132483 3.44156e-20)
(-2.36221 -0.0176044 0)
(-2.35291 -0.0224237 6.81228e-20)
(-2.34085 -0.0276636 6.76912e-20)
(-2.32582 -0.0332714 -1.00401e-19)
(-2.30761 -0.039186 0)
(-2.28603 -0.0453409 -3.24191e-20)
(-2.26093 -0.0516663 -3.18487e-20)
(-2.2322 -0.0580918 -9.42058e-20)
(-2.19975 -0.0645488 0)
(-2.16352 -0.0709723 0)
(-2.1235 -0.0773031 0)
(-2.0797 -0.0834889 -2.85309e-20)
(-2.03216 -0.0894853 0)
(-1.98092 -0.0952568 0)
(-1.92607 -0.100776 2.45228e-20)
(-1.86771 -0.106026 2.33195e-20)
(-1.80594 -0.110995 0)
(-1.74087 -0.115683 0)
(-1.67261 -0.120092 3.89037e-20)
(-1.60129 -0.124234 0)
(-1.527 -0.128124 -3.34424e-20)
(-1.44987 -0.131778 -3.15743e-20)
(-1.36998 -0.135218 0)
(-1.28743 -0.138463 0)
(-1.20229 -0.141533 2.32241e-20)
(-1.11462 -0.144445 -9.62368e-22)
(-1.02448 -0.147223 -9.73646e-22)
(-0.931948 -0.149891 0)
(-0.837101 -0.152455 2.40939e-20)
(-0.740053 -0.154867 0)
(-0.640885 -0.157041 0)
(-0.539631 -0.158911 0)
(-0.43636 -0.160438 -2.27276e-21)
(-0.33118 -0.161514 0)
(-0.224157 -0.162376 -1.00096e-21)
(-0.115506 -0.163163 -3.14675e-21)
(-0.00553353 -0.163399 0)
(0.105326 -0.16326 -5.65449e-21)
(0.216624 -0.16252 0)
(0.328473 -0.160576 0)
(0.440145 -0.158156 -2.0642e-20)
(0.550908 -0.154891 1.34201e-20)
(0.65995 -0.150873 0)
(0.766863 -0.145384 1.28411e-20)
(0.871567 -0.138514 -6.70214e-21)
(0.972805 -0.130852 0)
(1.06987 -0.121434 0)
(1.16206 -0.111085 0)
(1.24805 -0.0996173 -8.81009e-21)
(1.32778 -0.0863768 0)
(1.40069 -0.0725065 -1.4752e-21)
(1.46582 -0.0576523 0)
(1.52291 -0.0420848 0)
(1.57167 -0.026972 0)
(1.61161 -0.0115722 0)
(1.64267 0.00398838 0)
(1.66398 0.0193902 0)
(1.67439 0.0341802 6.07266e-21)
(1.67295 0.0479606 0)
(1.65874 0.0601205 2.74729e-21)
(1.63096 0.0700145 -7.74377e-21)
(1.58955 0.0772149 0)
(1.53549 0.0816484 0)
(1.47114 0.0836723 2.00584e-21)
(1.39856 0.0836117 3.20176e-22)
(1.32495 0.0839403 1.10062e-21)
(1.24073 0.0843462 2.85116e-21)
(0.0115642 -1.48547 7.01099e-21)
(-0.0390372 -1.12047 2.75067e-21)
(-0.110491 -0.811284 9.01927e-22)
(-0.195596 -0.529836 1.26357e-21)
(-0.296635 -0.263446 0)
(-0.415955 -0.00814327 2.95472e-21)
(-0.556797 0.237695 -4.37179e-22)
(-0.721439 0.474776 0)
(-0.910352 0.702696 -3.11737e-21)
(-1.12213 0.919019 0)
(-1.35429 1.11969 4.31608e-21)
(-1.60334 1.30068 0)
(-1.86382 1.45872 1.96472e-21)
(-2.12726 1.59038 3.62737e-21)
(-2.38271 1.69109 -3.6103e-21)
(-2.61912 1.75599 0)
(-2.82832 1.78223 -4.49644e-21)
(-3.00661 1.77053 0)
(-3.15476 1.72511 0)
(-3.2767 1.65238 -7.86445e-21)
(-3.37794 1.55954 0)
(-3.46423 1.45362 -3.31839e-21)
(-3.54068 1.34073 0)
(-3.6113 1.2258 0)
(-3.6788 1.11245 2.7812e-21)
(-3.74479 1.00315 -1.77141e-20)
(-3.80991 0.899372 -2.17268e-20)
(-3.87413 0.801873 -2.09446e-20)
(-3.93696 0.710859 0)
(-3.99768 0.626181 -4.97053e-20)
(-4.05546 0.547478 0)
(-4.10946 0.474276 -2.81928e-20)
(-4.1589 0.406059 0)
(-4.20311 0.342322 0)
(-4.24149 0.2826 3.12074e-20)
(-4.2736 0.226484 0)
(-4.29906 0.173634 -3.27459e-20)
(-4.3176 0.123774 1.22382e-21)
(-4.32904 0.0766882 6.65555e-20)
(-4.3333 0.0322087 -6.85404e-20)
(-4.33036 -0.0098105 0)
(-4.32033 -0.0494454 0)
(-4.30335 -0.086738 -3.55573e-20)
(-4.27965 -0.121655 0)
(-4.24947 -0.154152 -3.31497e-20)
(-4.2131 -0.184185 3.28784e-20)
(-4.17086 -0.211714 3.25273e-20)
(-4.1231 -0.236703 0)
(-4.07022 -0.259122 -3.16112e-20)
(-4.01264 -0.27895 -3.10592e-20)
(-3.95081 -0.296179 6.24778e-20)
(-3.88518 -0.310812 -2.98009e-20)
(-3.81623 -0.322869 -2.91076e-20)
(-3.74447 -0.332385 0)
(-3.67037 -0.339411 0)
(-3.59445 -0.344015 2.68466e-20)
(-3.5172 -0.346281 0)
(-3.4391 -0.346307 0)
(-3.36065 -0.344208 -4.88723e-20)
(-3.28231 -0.340107 -4.72487e-20)
(-3.20454 -0.334142 0)