/*--------------------------------*- C++ -*----------------------------------*\
  =========                 |
  \\      /  F ield         | OpenFOAM: The Open Source CFD Toolbox
   \\    /   O peration     | Website:  https://openfoam.org
    \\  /    A nd           | Version:  9
     \\/     M anipulation  |
\*---------------------------------------------------------------------------*/
FoamFile
{
    format      ascii;
    class       volScalarField;
    location    "0.02";
    object      epsilon;
}
// * * * * * * * * * * * * * * * * * * * * * * * * * * * * * * * * * * * * * //

dimensions      [0 2 -3 0 0 0 0];

internalField   nonuniform List<scalar> 
12225
(
208.728
125.181
81.4028
61.021
53.2747
51.5806
52.2214
53.2994
54.0495
54.415
54.6985
55.333
56.728
59.1992
63.4262
74.2701
114.26
228.91
60.2909
54.6709
42.5441
34.6199
30.4528
28.8721
28.9169
29.8627
31.3058
33.1
35.2047
37.549
39.9419
42.0761
43.8533
48.0642
78.8682
324.093
31.2
33.3044
29.4039
25.5724
23.0984
22.0445
22.1176
22.9587
24.3261
26.135
28.4004
31.1366
34.2272
37.3241
40.1704
45.76
82.5548
368.97
21.8007
24.1112
22.8526
20.9003
19.4205
18.7739
18.929
19.7029
20.9425
22.5965
24.707
27.3519
30.5424
34.1178
38.0856
46.0001
87.8494
375.645
17.8568
19.3925
19.0062
17.989
17.1289
16.7879
17.0266
17.7538
18.8723
20.3525
22.2437
24.6504
27.6756
31.3753
36.1541
46.0507
90.0069
355.075
15.9489
16.7279
16.5751
16.0232
15.5473
15.4241
15.7284
16.4151
17.4239
18.741
20.4161
22.5594
25.3261
28.9432
34.1661
45.2684
88.1939
319.839
14.9579
15.1457
14.9833
14.6485
14.4018
14.4226
14.7672
15.4113
16.32
17.493
18.9788
20.8843
23.3878
26.8225
32.1676
43.6538
83.3947
277.514
14.426
14.1843
13.9259
13.675
13.5545
13.6596
14.0181
14.6141
15.4313
16.4815
17.8133
19.5272
21.8061
25.0306
30.2655
41.4553
76.7126
232.834
14.1376
13.597
13.2235
12.9862
12.9242
13.0674
13.416
13.9581
14.6925
15.642
16.8574
18.4328
20.5446
23.5766
28.5684
38.9998
69.1586
189.613
13.9819
13.241
12.7617
12.5035
12.4567
12.6039
12.924
13.4084
14.0691
14.9403
16.0766
17.5673
19.5761
22.462
27.166
36.6075
61.6288
151.005
13.8992
13.0289
12.4636
12.1707
12.1129
12.2408
12.5194
12.945
13.5429
14.3583
15.452
16.9101
18.8815
21.6853
26.1268
34.5474
54.8669
119.134
13.86
12.9157
12.2915
11.9647
11.8837
11.9808
12.2148
12.5887
13.1404
13.9256
15.0121
16.4858
18.4834
21.2822
25.5535
33.1476
49.8525
96.8475
13.839
12.847
12.1788
11.8205
11.7111
11.7721
11.9609
12.2889
12.8055
13.5776
14.6815
16.2062
18.2804
21.1414
25.3275
32.232
45.8526
79.2016
13.8283
12.8041
12.1022
11.7135
11.57
11.5876
11.7274
12.012
12.5038
13.2826
14.4368
16.0651
18.2932
21.3224
25.5611
31.9811
43.125
66.2761
13.8245
12.7808
12.0552
11.6396
11.4598
11.4315
11.525
11.7755
12.2588
13.0694
14.3133
16.1067
18.5848
21.9265
26.4306
32.7172
42.2415
58.657
13.8241
12.7689
12.0276
11.5891
11.3742
11.3037
11.3608
11.5936
12.0894
12.9581
14.3277
16.3431
19.1652
22.9749
28.001
34.6087
43.5105
56.2317
13.8235
12.76
12.007
11.5473
11.3001
11.1966
11.2337
11.4686
11.9958
12.9375
14.4443
16.695
19.8886
24.2308
29.9253
37.1907
46.3064
57.6633
13.8187
12.7455
11.9787
11.495
11.2171
11.0907
11.1239
11.3755
11.9382
12.9371
14.5354
16.9335
20.3558
25.0233
31.1232
38.7899
48.0938
58.9452
13.8059
12.7175
11.9292
11.4117
11.0988
10.9526
10.986
11.2496
11.8228
12.82
14.3967
16.7479
20.093
24.6421
30.5483
37.8637
46.5124
56.1907
13.7898
12.687
11.8766
11.3247
10.9767
10.8056
10.8222
11.0639
11.5918
12.4996
13.9193
16.0206
19.0027
23.0731
28.4096
35.1034
43.0921
52.045
13.7797
12.6744
11.8572
11.2901
10.9254
10.7396
10.7387
10.9485
11.4155
12.2149
13.4554
15.2788
17.8584
21.3923
26.0856
32.1078
39.5118
48.0862
13.7823
12.698
11.9
11.3431
10.9826
10.7957
10.7825
10.9602
11.3649
12.0578
13.1278
14.6919
16.8969
19.9223
23.978
29.2827
35.998
44.0771
13.8158
12.8007
12.062
11.5435
11.2043
11.0238
10.9999
11.1458
11.4925
12.0916
13.0171
14.3654
16.2591
18.8535
22.3417
26.9479
32.8854
40.2336
13.9269
13.0746
12.4465
11.9836
11.6629
11.4762
11.4266
11.5314
11.8202
12.338
13.1462
14.3241
15.9732
18.2241
21.2423
25.2297
30.4012
36.8968
14.2322
13.7082
13.235
12.8062
12.4584
12.2147
12.0989
12.1373
12.3599
12.8038
13.5168
14.5618
16.0214
18.0031
20.6435
24.1119
28.6007
34.2651
15.0164
15.0787
14.7438
14.2377
13.7378
13.3311
13.0747
13.0035
13.1421
13.5133
14.1465
15.086
16.3961
18.1641
20.5018
23.5485
27.4698
32.4157
17.0059
17.9929
17.5712
16.6745
15.7542
14.9999
14.4885
14.2463
14.2749
14.5691
15.1312
15.9829
17.1708
18.7669
20.8667
23.5897
27.0801
31.477
22.3962
24.4845
23.0299
20.9383
19.0812
17.671
16.7359
16.2397
16.1235
16.3305
16.824
17.5995
18.6891
20.1591
22.1033
24.6351
27.8851
31.9792
40.1849
40.6649
34.8078
29.5065
25.615
22.955
21.2949
20.4087
20.0961
20.2023
20.6331
21.3599
22.4159
23.8853
25.8823
28.5283
31.9427
36.234
135.545
96.856
71.7684
55.4147
44.9955
38.8244
35.5673
34.0874
33.5939
33.6813
34.2366
35.32
37.0724
39.6548
43.2029
47.8024
53.5082
60.3869
135.66
278.078
319.218
335.754
333.946
319.668
297.691
277.287
260.727
248.03
241.046
242.697
254.689
272.487
286.842
290.703
287.375
305.643
348.169
403.083
462.677
522.447
579.914
633.786
683.453
728.693
769.504
806.008
838.396
866.895
891.75
913.219
931.573
947.091
960.074
970.846
979.769
987.262
991.871
993.402
992.019
987.833
980.924
971.362
959.219
944.581
927.544
908.224
886.752
863.277
837.962
810.986
782.542
752.83
722.06
690.445
658.202
625.545
592.685
559.826
527.163
494.88
463.145
432.116
401.93
372.712
344.566
317.582
291.834
267.378
244.257
222.501
202.124
183.13
165.511
149.249
134.315
120.672
108.274
97.0669
86.9896
77.9758
69.957
62.8737
56.7093
51.5762
47.882
46.3308
46.748
10.7907
47.2797
47.0988
46.7322
11.0194
10.9763
10.8699
10.8958
11.2596
11.1858
11.1238
10.9684
10.7858
10.6148
10.4655
10.3349
10.2167
10.1088
10.0158
9.9418
9.88807
9.85121
9.82323
9.79473
9.76184
9.72925
9.70048
9.67665
9.65813
9.64577
9.64139
9.64757
9.66587
9.69391
9.72337
9.7443
9.75236
9.75488
9.75658
9.75888
9.76228
9.76803
9.77844
9.79678
9.82542
9.863
9.9023
9.93175
9.94445
9.95047
9.95513
9.96012
9.96672
9.97721
9.99528
10.0246
10.0657
10.1121
10.1492
10.1647
10.1725
10.179
10.1856
10.1935
10.2047
10.2229
10.2533
10.2983
10.3531
10.4004
10.4198
10.4302
10.4393
10.4486
10.4587
10.4714
10.4906
10.5219
10.5702
10.6326
10.6904
10.7155
10.7307
10.7458
10.7646
10.792
10.8372
10.9129
11.0244
11.1595
11.2945
768.171
406.386
339.138
299.929
269.447
247.351
235.708
238.808
255.816
288.5
341.542
419.623
522.273
616.785
674.512
694.556
683.968
657.622
627.769
599.185
572.74
548.453
526.359
506.498
488.838
473.26
459.591
447.635
437.199
428.106
420.208
413.384
407.54
402.615
398.577
395.422
393.171
392.035
391.118
389.749
387.81
385.241
381.997
378.045
373.362
367.934
361.76
354.848
347.214
338.885
329.898
320.297
310.134
299.466
288.358
276.877
265.095
253.085
240.921
228.676
216.424
204.233
192.17
180.296
168.67
157.344
146.364
135.771
125.601
115.883
106.64
97.8911
89.6496
81.9234
74.7159
68.0259
61.8479
56.1725
50.9862
46.2725
42.0115
38.1811
34.7572
31.7145
29.0274
26.6707
24.6222
22.8342
21.0375
19.1415
18.1572
17.1812
16.1908
14.3179
13.6207
13.436
12.8329
11.4987
11.1653
10.9013
10.7193
10.5914
10.4945
10.4184
10.3577
10.3085
10.2697
10.2412
10.2226
10.2131
10.211
10.2134
10.2178
10.2241
10.2332
10.2451
10.2593
10.2751
10.2917
10.3089
10.3265
10.3442
10.3619
10.3793
10.3939
10.4043
10.4121
10.4185
10.4236
10.4276
10.4304
10.4321
10.433
10.4339
10.4365
10.4417
10.4461
10.4455
10.4422
10.4383
10.4341
10.4296
10.4247
10.4198
10.4155
10.414
10.4173
10.4218
10.4199
10.4146
10.4092
10.404
10.399
10.3941
10.3896
10.3863
10.3862
10.3931
10.4039
10.4062
10.4046
10.4037
10.4037
10.4048
10.4072
10.4117
10.4189
10.4314
10.4546
10.487
10.5112
10.5372
10.5741
10.6273
10.7054
10.8194
10.9803
11.1614
11.2462
11.0362
892.315
533.081
430.473
372.05
335.534
317.951
325.515
355.725
410.485
487.97
580.672
671.69
738.609
762.408
741.564
690.919
628.902
569.214
517.962
475.815
441.444
413.363
390.394
371.631
356.352
343.956
333.94
325.888
319.463
314.395
310.468
307.509
305.371
303.926
303.057
302.651
302.596
302.75
302.805
302.613
302.09
301.168
299.787
297.896
295.456
292.434
288.81
284.573
279.722
274.266
268.223
261.618
254.485
246.866
238.806
230.358
221.577
212.52
203.249
193.823
184.303
174.748
165.217
155.762
146.437
137.287
128.356
119.682
111.299
103.236
95.5162
88.1598
81.1813
74.5916
68.3972
62.601
57.2026
52.1981
47.5808
43.3412
39.4675
35.9455
32.7591
29.8897
27.3166
25.0172
22.9682
21.1447
19.513
18.0768
16.8069
15.7309
14.774
13.8988
13.1853
12.5754
12.0347
11.5163
11.1649
10.864
10.635
10.4633
10.3307
10.2264
10.1431
10.0755
10.0205
9.97681
9.94401
9.92151
9.90816
9.90131
9.89776
9.89615
9.89708
9.90086
9.90688
9.91433
9.92239
9.93057
9.93917
9.94934
9.96203
9.9761
9.98827
9.99592
10.0005
10.0037
10.006
10.0069
10.0061
10.0037
10.0002
9.99732
9.99733
10.0006
10.0037
10.0018
9.99679
9.99088
9.98428
9.9768
9.96825
9.959
9.95063
9.94569
9.94581
9.94803
9.94477
9.93798
9.93066
9.92318
9.91538
9.90699
9.89819
9.89026
9.88598
9.8884
9.89576
9.89709
9.89452
9.89207
9.89036
9.88948
9.88938
9.89034
9.8937
9.90267
9.9224
9.95324
9.98278
10.0162
10.0623
10.1265
10.2144
10.3277
10.4578
10.5687
10.5916
10.4505
1287.75
677.445
550.927
489.663
459.73
459.088
477.06
513.499
565.576
624.721
677.114
707.145
704.422
669.497
613.55
551.192
493.326
445
406.786
377.16
354.22
336.371
322.412
311.446
302.792
295.934
290.484
286.169
282.796
280.235
278.391
277.185
276.543
276.386
276.629
277.178
277.933
278.756
279.499
280.062
280.364
280.331
279.897
279.005
277.606
275.661
273.143
270.033
266.323
262.016
257.122
251.663
245.665
239.163
232.199
224.817
217.067
209.003
200.678
192.148
183.47
174.698
165.888
157.09
148.355
139.728
131.253
122.968
114.908
107.102
99.5759
92.3522
85.4478
78.8763
72.6477
66.7687
61.2425
56.07
51.249
46.7751
42.6416
38.8397
35.3586
32.1853
29.3051
26.702
24.3602
22.2641
20.3978
18.7436
17.2837
16.0077
14.8911
13.9239
13.0933
12.378
11.7657
11.2405
10.8041
10.4315
10.1217
9.86656
9.65511
9.47874
9.3305
9.20465
9.09745
9.0066
8.93055
8.86801
8.81739
8.77625
8.74164
8.71155
8.68565
8.66393
8.64597
8.63113
8.61882
8.6087
8.60104
8.59669
8.59618
8.59842
8.60085
8.60108
8.59963
8.59771
8.59543
8.5927
8.58935
8.58543
8.58155
8.5791
8.57946
8.58244
8.58567
8.58565
8.58299
8.57919
8.57471
8.56956
8.56378
8.5579
8.55337
8.55197
8.55426
8.55809
8.55837
8.5556
8.55177
8.54748
8.54282
8.53776
8.53265
8.52887
8.52855
8.53315
8.54117
8.54545
8.54638
8.54655
8.54685
8.54753
8.54868
8.55069
8.55503
8.56448
8.58198
8.60787
8.63449
8.66332
8.69973
8.74718
8.80719
8.87554
8.93809
8.9714
8.95719
8.92417
1744.51
871.972
721.772
655.343
621.718
602.856
598.809
607.953
623.409
635.593
635.102
616.201
579.426
531.132
480.053
433.292
394.438
364.034
340.965
323.635
310.583
300.651
292.969
286.904
282.013
278.002
274.696
272.003
269.88
268.307
267.266
266.731
266.659
266.992
267.658
268.575
269.654
270.788
271.876
272.827
273.559
273.995
274.063
273.703
272.861
271.494
269.569
267.066
263.972
260.288
256.022
251.192
245.824
239.949
233.605
226.834
219.681
212.196
204.428
196.429
188.248
179.939
171.549
163.128
154.723
146.376
138.129
130.018
122.079
114.339
106.827
99.565
92.5714
85.8623
79.4502
73.3449
67.5534
62.0804
56.9283
52.0974
47.5861
43.3908
39.5063
35.925
32.6381
29.6364
26.9079
24.4424
22.2277
20.243
18.4887
16.9451
15.5914
14.4109
13.3871
12.5026
11.742
11.0897
10.5328
10.0561
9.65045
9.30642
9.01454
8.76635
8.55455
8.37295
8.21674
8.08246
7.96748
7.86966
7.78686
7.71653
7.65597
7.6031
7.55692
7.51685
7.48226
7.45248
7.42689
7.40508
7.38695
7.37271
7.36231
7.35488
7.34887
7.34296
7.33719
7.33185
7.327
7.32251
7.31827
7.31428
7.31087
7.30877
7.30857
7.30996
7.31162
7.31186
7.31075
7.30898
7.30682
7.30434
7.30164
7.29911
7.2976
7.29805
7.30049
7.30365
7.30515
7.30497
7.30403
7.30272
7.30118
7.29947
7.29792
7.29742
7.29921
7.30375
7.30999
7.31455
7.31727
7.31935
7.3214
7.32363
7.32619
7.32946
7.33446
7.34294
7.35619
7.37464
7.39427
7.41526
7.44007
7.47012
7.50489
7.53963
7.56373
7.56603
7.54882
7.55854
2163.99
1082.1
909.935
827.247
757.808
701.018
658.738
628.071
602.902
576.76
545.371
507.975
467.046
426.647
390.459
360.542
337.237
319.766
306.909
297.452
290.378
284.91
280.499
276.783
273.552
270.707
268.224
266.12
264.425
263.169
262.363
261.999
262.05
262.469
263.194
264.152
265.268
266.468
267.665
268.772
269.702
270.375
270.714
270.653
270.133
269.107
267.54
265.407
262.696
259.405
255.543
251.129
246.186
240.748
234.852
228.537
221.848
214.83
207.53
199.994
192.268
184.398
176.43
168.406
160.367
152.353
144.401
136.544
128.813
121.236
113.837
106.638
99.6576
92.9113
86.4127
80.173
74.2013
68.5054
63.0911
57.9632
53.1241
48.5751
44.3177
40.3484
36.6641
33.2649
30.1348
27.281
24.6994
22.372
20.2866
18.4299
16.7867
15.3416
14.0784
12.9807
12.0318
11.215
10.5146
9.91491
9.40301
8.967
8.59592
8.2799
8.0103
7.77974
7.58213
7.41264
7.26736
7.143
7.03662
6.9454
6.86676
6.79867
6.73964
6.68856
6.64445
6.60646
6.57382
6.54594
6.52243
6.50299
6.48727
6.47454
6.46386
6.4545
6.44628
6.43919
6.43317
6.42806
6.42369
6.42
6.4171
6.41526
6.41464
6.41496
6.41553
6.41561
6.41521
6.4146
6.41392
6.41318
6.41244
6.41193
6.41206
6.41325
6.41537
6.41773
6.41934
6.42021
6.42072
6.42108
6.42136
6.42162
6.42207
6.42321
6.42564
6.42943
6.4339
6.43768
6.44067
6.44339
6.44616
6.4491
6.45233
6.45611
6.46107
6.46816
6.47787
6.49049
6.50413
6.51877
6.5354
6.55433
6.57455
6.59257
6.60218
6.59914
6.58973
6.61101
2494.9
1266.03
1062.83
944.2
839.299
745.777
667.154
603.2
550.407
504.608
463.046
424.933
390.854
361.774
338.26
320.175
306.8
297.13
290.143
284.957
280.89
277.467
274.39
271.501
268.751
266.157
263.777
261.679
259.927
258.569
257.632
257.119
257.012
257.273
257.847
258.667
259.679
260.834
262.049
263.234
264.297
265.149
265.704
265.889
265.636
264.893
263.617
261.782
259.374
256.39
252.84
248.744
244.13
239.033
233.493
227.552
221.255
214.648
207.775
200.68
193.407
185.997
178.489
170.923
163.333
155.753
148.215
140.748
133.377
126.126
119.015
112.062
105.283
98.6896
92.294
86.1061
80.1348
74.3887
68.8747
63.6012
58.5729
53.7931
49.2751
45.0103
41.0063
37.2841
33.8301
30.6402
27.7114
25.0373
22.6109
20.4236
18.4656
16.7254
15.19
13.8451
12.675
11.6635
10.7938
10.0494
9.41459
8.87508
8.41742
8.02952
7.70061
7.42139
7.18401
6.98196
6.80985
6.66317
6.53804
6.43109
6.33938
6.26053
6.19269
6.13435
6.08426
6.04132
6.0046
5.9733
5.9468
5.92455
5.90601
5.89055
5.8775
5.86635
5.85685
5.8489
5.84232
5.83693
5.83256
5.82907
5.82645
5.82471
5.82386
5.82366
5.82371
5.82371
5.82364
5.82362
5.8237
5.82388
5.82417
5.82467
5.82556
5.82701
5.82887
5.83076
5.83232
5.83355
5.83468
5.83579
5.83692
5.8381
5.83945
5.84122
5.84368
5.84678
5.85011
5.85314
5.85588
5.85859
5.86143
5.86446
5.86776
5.87149
5.87601
5.8818
5.88909
5.89792
5.90752
5.91788
5.92939
5.94197
5.95472
5.96544
5.97092
5.97012
5.96892
5.99091
2762.97
1378.8
1141.53
999.995
869.346
748.739
645.239
561.61
495.997
444.521
403.617
370.907
345.006
324.996
310.028
299.173
291.447
285.913
281.772
278.407
275.389
272.454
269.478
266.437
263.377
260.383
257.555
254.992
252.777
250.971
249.612
248.713
248.264
248.232
248.567
249.207
250.114
251.256
252.547
253.888
255.178
256.313
257.198
257.742
257.868
257.511
256.619
255.158
253.109
250.468
247.246
243.466
239.159
234.367
229.135
223.513
217.55
211.296
204.798
198.102
191.25
184.283
177.236
170.144
163.04
155.952
148.906
141.926
135.034
128.247
121.581
115.046
108.653
102.409
96.3214
90.3945
84.6337
79.0462
73.6348
68.4131
63.3825
58.5393
53.934
49.552
45.3936
41.4667
37.774
34.3178
31.1002
28.1215
25.3812
22.877
20.6053
18.5602
16.7342
15.1173
13.6975
12.4609
11.392
10.4745
9.69183
9.02761
8.46619
7.99297
7.59465
7.2595
6.97735
6.73962
6.53908
6.36969
6.22637
6.10486
6.00156
5.91356
5.83848
5.77441
5.71975
5.67316
5.6335
5.59981
5.57129
5.54724
5.52702
5.51003
5.49567
5.48353
5.4733
5.4648
5.45784
5.4522
5.4477
5.44419
5.44156
5.43975
5.43867
5.43813
5.4379
5.43781
5.43784
5.43804
5.43842
5.43897
5.43967
5.44055
5.4417
5.44314
5.44477
5.44639
5.44783
5.44915
5.45046
5.45181
5.45322
5.45471
5.45632
5.4582
5.46044
5.46298
5.46558
5.46803
5.4704
5.47283
5.47543
5.47822
5.48124
5.4846
5.48849
5.49317
5.49874
5.50516
5.51212
5.51967
5.52794
5.5368
5.54561
5.55311
5.55779
5.5599
5.56397
5.58415
2970.98
1428.29
1163.96
1006.58
860.777
725.779
610.708
519.904
451.863
402.033
365.659
339.066
319.707
305.786
295.921
288.962
283.94
280.067
276.746
273.561
270.261
266.731
262.961
259.014
255
251.049
247.291
243.848
240.82
238.282
236.283
234.844
233.959
233.602
233.725
234.26
235.181
236.453
237.984
239.664
241.377
243.009
244.445
245.579
246.316
246.573
246.283
245.398
243.889
241.746
238.976
235.603
231.664
227.207
222.287
216.962
211.293
205.338
199.152
192.787
186.288
179.699
173.056
166.394
159.741
153.126
146.572
140.099
133.726
127.464
121.324
115.314
109.434
103.687
98.0712
92.5841
87.2225
81.9934
76.8793
71.9168
67.1135
62.4577
57.9598
53.6246
49.4586
45.4702
41.6677
38.0589
34.6509
31.45
28.4617
25.69
23.1379
20.8062
18.694
16.7978
15.1112
13.6255
12.3291
11.2083
10.2474
9.4302
8.73969
8.15936
7.67354
7.26787
6.92957
6.64752
6.41223
6.21572
6.05131
5.91344
5.79752
5.69982
5.61731
5.54754
5.48848
5.43848
5.39616
5.36037
5.33014
5.30465
5.28319
5.26512
5.24988
5.23703
5.22625
5.21729
5.20993
5.20396
5.19919
5.19545
5.1926
5.19053
5.18913
5.18825
5.18773
5.18746
5.1874
5.18755
5.18792
5.18848
5.18921
5.19011
5.19118
5.19244
5.1938
5.19515
5.19642
5.19764
5.19889
5.20019
5.20155
5.203
5.20454
5.20624
5.20813
5.21017
5.21222
5.2142
5.21617
5.21822
5.22042
5.22279
5.22536
5.22819
5.23139
5.23508
5.23934
5.24411
5.24926
5.25484
5.26094
5.26742
5.27391
5.27973
5.28427
5.28823
5.29483
5.31264
3086.7
1430.85
1145.76
979.673
828.786
690.706
574.66
485.122
420.273
374.929
343.621
322.034
307.13
296.804
289.535
284.188
279.902
276.045
272.182
268.05
263.53
258.614
253.378
247.951
242.491
237.167
232.139
227.546
223.504
220.098
217.381
215.379
214.088
213.48
213.507
214.096
215.203
216.775
218.71
220.893
223.201
225.509
227.693
229.63
231.206
232.32
232.883
232.826
232.101
230.683
228.568
225.776
222.343
218.322
213.777
208.778
203.399
197.711
191.783
185.676
179.447
173.143
166.807
160.477
154.183
147.955
141.815
135.784
129.879
124.113
118.491
113.018
107.691
102.503
97.4467
92.5104
87.6724
82.9634
78.3704
73.8765
69.4768
65.1682
60.9539
56.8399
52.8339
48.9459
45.1863
41.5664
38.0972
34.7895
31.6536
28.6991
25.9347
23.3678
21.0043
18.8478
16.8994
15.1573
13.6162
12.2676
11.1002
10.0998
9.25054
8.53546
7.9375
7.44014
7.02808
6.68749
6.4063
6.17412
5.98221
5.82329
5.69137
5.58156
5.48993
5.41328
5.34904
5.29512
5.24982
5.21173
5.17971
5.15279
5.13015
5.11111
5.09508
5.08159
5.07027
5.06083
5.05303
5.04664
5.04147
5.03735
5.03412
5.03166
5.02986
5.02858
5.02769
5.02712
5.0268
5.02673
5.02689
5.02723
5.02775
5.02842
5.02924
5.03019
5.03121
5.03224
5.03324
5.03423
5.03525
5.03633
5.03747
5.03866
5.03994
5.04131
5.04279
5.04435
5.04592
5.04745
5.04899
5.05061
5.05234
5.05422
5.05626
5.05849
5.06098
5.06379
5.06698
5.0705
5.07429
5.07841
5.0829
5.0877
5.09259
5.09726
5.10155
5.10621
5.11348
5.12861
3132.41
1402.09
1102.58
934.06
785.837
652.632
542.303
458.593
399.269
358.929
331.958
313.921
301.689
293.126
286.751
281.521
276.701
271.797
266.511
260.702
254.358
247.562
240.466
233.258
226.144
219.326
212.984
207.27
202.3
198.157
194.885
192.499
190.986
190.311
190.416
191.226
192.653
194.61
196.991
199.685
202.576
205.544
208.465
211.217
213.678
215.729
217.264
218.189
218.43
217.936
216.681
214.667
211.918
208.485
204.433
199.841
194.795
189.383
183.688
177.788
171.752
165.64
159.504
153.387
147.327
141.356
135.501
129.786
124.231
118.851
113.654
108.642
103.812
99.1536
94.6514
90.293
86.0955
82.0143
78.0217
74.0972
70.2274
66.4038
62.6235
58.8879
55.202
51.5742
48.0147
44.5356
41.1498
37.8705
34.7115
31.6863
28.8079
26.089
23.5414
21.1753
18.9992
17.019
15.2372
13.653
12.2614
11.0538
10.0181
9.1394
8.40124
7.78636
7.27768
6.85908
6.51585
6.235
6.00534
5.81743
5.66343
5.53693
5.43274
5.34668
5.2754
5.21621
5.16695
5.12588
5.09158
5.0629
5.03889
5.01875
5.00183
4.98762
4.97568
4.96569
4.95738
4.9505
4.94484
4.94025
4.93655
4.93362
4.93134
4.9296
4.92828
4.92731
4.92663
4.9262
4.926
4.926
4.92617
4.92649
4.92693
4.92748
4.9281
4.92875
4.9294
4.93006
4.93076
4.93151
4.9323
4.93315
4.93405
4.93502
4.93606
4.93714
4.93823
4.9393
4.9404
4.94156
4.94281
4.94417
4.94565
4.94727
4.94908
4.9511
4.95338
4.95589
4.9586
4.96156
4.96479
4.96828
4.97193
4.97562
4.97941
4.98396
4.99081
5.00323
3129.21
1355.05
1046.83
880.568
739.944
616.163
514.924
438.899
385.601
349.805
326.157
310.405
299.543
291.526
284.973
278.953
272.853
266.302
259.12
251.279
242.867
234.057
225.075
216.168
207.584
199.546
192.239
185.805
180.341
175.897
172.49
170.102
168.696
168.213
168.585
169.73
171.516
173.817
176.529
179.554
182.794
186.151
189.521
192.797
195.872
198.632
200.965
202.765
203.934
204.392
204.079
202.963
201.042
198.343
194.92
190.851
186.224
181.14
175.698
169.992
164.108
158.12
152.093
146.08
140.127
134.275
128.557
123.003
117.64
112.489
107.563
102.871
98.4093
94.1681
90.1618
86.38
82.7698
79.2896
75.9049
72.5863
69.3096
66.0562
62.8137
59.5751
56.339
53.1086
49.8908
46.6956
43.5353
40.4236
37.3751
34.4055
31.5306
28.7662
26.1284
23.6326
21.2932
19.123
17.1326
15.3292
13.7163
12.2929
11.0534
9.98811
9.08384
8.32487
7.69414
7.17435
6.74878
6.40204
6.1204
5.89199
5.70676
5.55639
5.43408
5.33433
5.25275
5.18582
5.13074
5.08529
5.04767
5.01647
4.99051
4.96885
4.95074
4.93556
4.92283
4.91214
4.90319
4.89572
4.8895
4.88436
4.88013
4.87667
4.87388
4.87162
4.86982
4.86838
4.86726
4.86641
4.86578
4.86535
4.86509
4.86498
4.86498
4.86508
4.86526
4.86548
4.86572
4.86599
4.8663
4.86665
4.86704
4.86748
4.86796
4.86849
4.86906
4.86967
4.87029
4.87092
4.87156
4.87226
4.87302
4.87387
4.8748
4.87585
4.87702
4.87834
4.87984
4.8815
4.88332
4.88533
4.88755
4.88998
4.8926
4.89541
4.89853
4.90251
4.9084
4.91828
3093.18
1298.84
986.655
825.713
695.242
582.843
491.82
423.764
376.134
344.142
322.911
308.527
298.192
290.001
282.686
275.425
267.717
259.307
250.127
240.26
229.899
219.305
208.777
198.615
189.089
180.424
172.784
166.273
160.937
156.776
153.755
151.812
150.87
150.844
151.646
153.185
155.312
157.871
160.762
163.899
167.2
170.587
173.985
177.317
180.505
183.468
186.118
188.362
190.104
191.247
191.706
191.411
190.316
188.409
185.709
182.268
178.164
173.496
168.369
162.891
157.163
151.275
145.306
139.322
133.38
127.528
121.811
116.268
110.933
105.838
101.007
96.456
92.1901
88.2423
84.6168
81.2536
78.1063
75.1323
72.2906
69.5421
66.8512
64.1873
61.5258
58.8488
56.1448
53.4089
50.6413
47.8472
45.0351
42.2168
39.4058
36.6173
33.8679
31.1749
28.5563
26.0305
23.6161
21.3311
19.1922
17.2143
15.4091
13.7841
12.3423
11.0815
9.99467
9.07048
8.29443
7.65001
7.11997
6.68737
6.33636
6.05273
5.82408
5.63992
5.49151
5.37175
5.27489
5.19631
5.13238
5.08019
5.03744
5.00231
4.97332
4.94933
4.92938
4.91275
4.89882
4.88713
4.87732
4.86907
4.86215
4.85635
4.8515
4.84744
4.84407
4.84126
4.83892
4.83697
4.83535
4.83401
4.83291
4.832
4.83127
4.83067
4.8302
4.82983
4.82953
4.82929
4.82909
4.82893
4.8288
4.82872
4.82867
4.82867
4.8287
4.82878
4.82889
4.82904
4.8292
4.82937
4.82957
4.82981
4.8301
4.83046
4.83089
4.8314
4.832
4.83271
4.83355
4.8345
4.83558
4.8368
4.83819
4.83977
4.84154
4.84355
4.84595
4.84917
4.85393
4.86158
3034.96
1239.15
926.723
772.842
653.394
552.667
471.683
411.094
368.46
339.554
320.06
306.458
296.182
287.476
279.183
270.581
261.271
251.105
240.13
228.537
216.62
204.729
193.222
182.428
172.62
163.991
156.657
150.659
145.98
142.558
140.303
139.111
138.87
139.471
140.807
142.781
145.249
148.054
151.092
154.277
157.528
160.771
163.941
166.982
169.847
172.495
174.882
176.964
178.681
179.965
180.735
180.906
180.398
179.152
177.134
174.35
170.838
166.672
161.948
156.773
151.256
145.499
139.593
133.616
127.635
121.71
115.895
110.241
104.794
99.5981
94.6906
90.1005
85.8728
82.0628
78.6123
75.4806
72.6284
70.0135
67.5906
65.3129
63.1347
61.0134
58.9121
56.8001
54.6543
52.4588
50.2046
47.8891
45.5148
43.0884
40.62
38.1226
35.611
33.1018
30.6132
28.1645
25.7759
23.4683
21.2629
19.1797
17.2372
15.451
13.8323
12.3879
11.1188
10.0207
9.08445
8.2969
7.64247
7.10429
6.66551
6.31015
6.02374
5.79361
5.60898
5.46089
5.34197
5.24631
5.16916
5.10674
5.05609
5.01482
4.98107
4.95335
4.93047
4.9115
4.89569
4.88246
4.87135
4.86199
4.85409
4.84741
4.84176
4.83697
4.8329
4.82944
4.82648
4.82395
4.82177
4.81988
4.81824
4.81681
4.81555
4.81445
4.81346
4.81259
4.81179
4.81106
4.81038
4.80975
4.80916
4.80862
4.80812
4.80766
4.80724
4.80685
4.80651
4.8062
4.80591
4.80564
4.80541
4.80521
4.80506
4.80496
4.80493
4.80496
4.80506
4.80524
4.80552
4.8059
4.80637
4.80695
4.80768
4.80856
4.80964
4.81097
4.81269
4.81514
4.81881
4.82461
2960.69
1179.04
869.292
723.294
614.729
525.059
453.31
399.383
361.032
334.622
316.409
303.263
292.857
283.572
274.35
264.557
253.885
242.288
229.913
217.059
204.111
191.487
179.585
168.74
159.193
151.085
144.463
139.299
135.51
132.984
131.59
131.2
131.686
132.929
134.818
137.248
140.097
143.226
146.531
149.908
153.257
156.485
159.508
162.264
164.709
166.821
168.597
170.045
171.172
171.974
172.428
172.485
172.075
171.117
169.535
167.274
164.316
160.683
156.431
151.647
146.43
140.883
135.1
129.167
123.161
117.149
111.194
105.359
99.7028
94.2851
89.1605
84.3823
80.0703
76.1897
72.7144
69.6208
66.8784
64.4482
62.2839
60.334
58.5454
56.866
55.2472
53.6464
52.0281
50.3646
48.6361
46.8299
44.9402
42.9667
40.9137
38.7896
36.6057
34.3759
32.1163
29.8451
27.5823
25.3495
23.1697
21.0661
19.0613
17.1768
15.4307
13.8376
12.4074
11.1445
10.0474
9.10875
8.31717
7.65814
7.11548
6.6727
6.31398
6.02489
5.79272
5.60664
5.45757
5.33808
5.24215
5.16496
5.10268
5.05225
5.01127
4.97782
4.95039
4.92777
4.90901
4.89336
4.88025
4.8692
4.85986
4.85192
4.84516
4.83937
4.83441
4.83012
4.8264
4.82315
4.82029
4.81776
4.81551
4.81348
4.81165
4.80997
4.80843
4.80701
4.80568
4.80442
4.80324
4.8021
4.80103
4.8
4.79903
4.7981
4.79721
4.79637
4.79558
4.79482
4.79409
4.7934
4.79274
4.79213
4.79157
4.79106
4.7906
4.79021
4.78988
4.78962
4.78944
4.78934
4.78933
4.78941
4.78962
4.78997
4.79051
4.79128
4.79243
4.7942
4.79694
4.80127
2866.51
1117.15
812.996
675.596
577.716
498.509
435.303
387.408
352.836
328.55
311.368
298.551
288
278.23
268.267
257.553
245.858
233.221
219.886
206.24
192.746
179.871
168.028
157.531
148.569
141.214
135.442
131.155
128.221
126.492
125.824
126.085
127.154
128.926
131.301
134.18
137.456
141.026
144.779
148.594
152.341
155.889
159.117
161.92
164.226
165.995
167.227
167.955
168.241
168.156
167.765
167.107
166.183
164.953
163.343
161.268
158.654
155.454
151.665
147.322
142.491
137.255
131.697
125.901
119.941
113.889
107.814
101.786
95.8781
90.1654
84.721
79.7044
75.1326
71.0044
67.3239
64.0855
61.2703
58.8454
56.767
54.9823
53.434
52.0631
50.8123
49.6287
48.4654
47.2832
46.0509
44.7451
43.3499
41.8563
40.2609
38.5655
36.7757
34.9008
32.9531
30.9476
28.9021
26.8375
24.7772
22.7443
20.7623
18.8552
17.0466
15.3576
13.806
12.4043
11.1597
10.0732
9.14003
8.35058
7.69164
7.14785
6.70312
6.34204
6.05046
5.81585
5.62747
5.47632
5.35499
5.25747
5.17892
5.11548
5.06407
5.02224
4.98806
4.95998
4.93677
4.91747
4.90133
4.88774
4.87625
4.86647
4.85811
4.85093
4.84472
4.83933
4.8346
4.83043
4.82673
4.82341
4.82041
4.81768
4.81518
4.81286
4.81069
4.80867
4.80675
4.80493
4.8032
4.80154
4.79994
4.79841
4.79695
4.79554
4.79419
4.79289
4.79164
4.79045
4.78931
4.78821
4.78716
4.78616
4.78522
4.78434
4.78352
4.78276
4.78207
4.78144
4.7809
4.78043
4.78004
4.77975
4.77957
4.77953
4.77966
4.78003
4.78074
4.78197
4.78399
4.78722
2771
1064.19
766.485
636.562
547.385
476.496
419.979
376.739
345.033
322.323
305.895
293.336
282.737
272.716
262.358
251.15
238.912
225.738
211.935
197.95
184.296
171.468
159.877
149.809
141.403
134.672
129.53
125.836
123.424
122.133
121.824
122.382
123.714
125.745
128.405
131.619
135.289
139.344
143.673
148.138
152.578
156.82
160.69
164.026
166.697
168.609
169.721
170.047
169.656
168.664
167.21
165.439
163.467
161.361
159.126
156.71
154.027
150.983
147.507
143.564
139.159
134.325
129.114
123.587
117.802
111.822
105.715
99.5532
93.4176
87.3983
81.6814
76.3269
71.3745
66.8679
62.8398
59.3049
56.2586
53.6777
51.5231
49.7436
48.28
47.069
46.047
45.1531
44.3315
43.5331
42.7163
41.8479
40.9022
39.8609
38.7123
37.4506
36.0747
34.5879
32.9971
31.3127
29.5488
27.7242
25.858
23.9729
22.0932
20.2441
18.4511
16.7392
15.1309
13.6453
12.2967
11.0939
10.0391
9.12922
8.35602
7.70788
7.17106
6.73073
6.37205
6.08134
5.84653
5.65725
5.50476
5.38187
5.2827
5.20251
5.13748
5.08458
5.04136
5.00588
4.97659
4.95227
4.93195
4.91486
4.90041
4.88811
4.87759
4.86854
4.86069
4.85386
4.84786
4.84255
4.83781
4.83355
4.82968
4.82614
4.82288
4.81985
4.81702
4.81435
4.81183
4.80943
4.80713
4.80493
4.80282
4.80079
4.79884
4.79697
4.79517
4.79345
4.79179
4.79019
4.78866
4.78719
4.78579
4.78445
4.78318
4.78198
4.78085
4.7798
4.77881
4.7779
4.77707
4.77632
4.77566
4.7751
4.77465
4.77434
4.7742
4.77429
4.77468
4.77553
4.77701
4.77944
2673.07
1019.4
728.683
605.192
523.021
458.674
407.346
367.673
338.128
316.585
300.715
288.376
277.816
267.732
257.248
245.869
233.438
220.075
206.12
192.057
178.425
165.737
154.4
144.676
136.668
130.343
125.574
122.188
119.999
118.846
118.599
119.166
120.487
122.525
125.249
128.618
132.562
137.015
141.878
147.006
152.215
157.301
162.044
166.228
169.662
172.187
173.7
174.164
173.61
172.143
169.928
167.169
164.08
160.848
157.597
154.377
151.159
147.86
144.377
140.618
136.522
132.06
127.232
122.053
116.549
110.76
104.739
98.5518
92.2729
86.1086
80.1286
74.4144
69.052
64.1191
59.6755
55.7582
52.3799
49.5296
47.1759
45.271
43.7562
42.5658
41.6323
40.8893
40.2743
39.7309
39.21
38.6699
38.0768
37.4046
36.6339
35.7514
34.7495
33.6252
32.3791
31.0152
29.5445
27.9823
26.3453
24.6533
22.9287
21.1958
19.4803
17.8084
16.2053
14.6942
13.2945
12.0208
10.8821
9.88129
9.01589
8.27854
7.65845
7.14276
6.71804
6.37085
6.08835
5.85914
5.67348
5.52315
5.40135