/*--------------------------------*- C++ -*----------------------------------*\
  =========                 |
  \\      /  F ield         | OpenFOAM: The Open Source CFD Toolbox
   \\    /   O peration     | Website:  https://openfoam.org
    \\  /    A nd           | Version:  9
     \\/     M anipulation  |
\*---------------------------------------------------------------------------*/
FoamFile
{
    format      ascii;
    class       volScalarField;
    location    "0.02";
    object      k;
}
// * * * * * * * * * * * * * * * * * * * * * * * * * * * * * * * * * * * * * //

dimensions      [0 2 -2 0 0 0 0];

internalField   nonuniform List<scalar> 
12225
(
0.265234
0.159016
0.10318
0.0769405
0.0667615
0.0643678
0.0650461
0.0663545
0.0672568
0.0676123
0.0677675
0.0682692
0.0696614
0.0723844
0.0773263
0.0906441
0.140071
0.284156
0.330965
0.246718
0.195847
0.169444
0.158051
0.155367
0.157003
0.15996
0.162573
0.164364
0.165627
0.167
0.169137
0.172593
0.17874
0.19332
0.254584
0.545687
0.344112
0.284448
0.240549
0.213965
0.201094
0.197557
0.199215
0.202812
0.206336
0.209077
0.211312
0.213878
0.217713
0.22348
0.232341
0.251137
0.323261
0.678386
0.349829
0.305031
0.268176
0.243622
0.230798
0.226958
0.228615
0.232637
0.236884
0.240443
0.24343
0.246669
0.251311
0.258474
0.269895
0.293581
0.374608
0.743771
0.353389
0.317801
0.286928
0.265264
0.253508
0.249978
0.251833
0.256238
0.2611
0.265394
0.269067
0.272812
0.277854
0.2858
0.299338
0.327399
0.414098
0.763611
0.35579
0.326388
0.300416
0.281777
0.271598
0.26879
0.271017
0.275791
0.281186
0.286159
0.29053
0.294826
0.300225
0.30867
0.323702
0.354747
0.44118
0.756479
0.357509
0.332495
0.310494
0.29471
0.28629
0.284412
0.287101
0.292216
0.298069
0.303681
0.308802
0.313801
0.319735
0.328659
0.344579
0.376867
0.458669
0.733872
0.358784
0.336995
0.318205
0.304985
0.298306
0.29741
0.300568
0.305968
0.312204
0.318428
0.324368
0.330268
0.337021
0.346593
0.36299
0.394985
0.469622
0.70232
0.359749
0.340377
0.32418
0.313192
0.308116
0.30814
0.311706
0.317312
0.323857
0.330672
0.337507
0.344512
0.352405
0.362913
0.379664
0.410369
0.476512
0.666566
0.360486
0.342936
0.32882
0.319721
0.31604
0.316847
0.320712
0.326431
0.333219
0.340611
0.348415
0.356717
0.366064
0.377864
0.395138
0.424232
0.481619
0.631483
0.361051
0.344866
0.332394
0.324846
0.32231
0.323718
0.327752
0.333493
0.340467
0.34843
0.357265
0.367028
0.378113
0.391587
0.409788
0.437595
0.487056
0.602057
0.361446
0.346184
0.334871
0.328445
0.326715
0.328487
0.332553
0.338245
0.345355
0.353838
0.36366
0.374876
0.387767
0.403121
0.422671
0.450029
0.493812
0.583546
0.361756
0.347184
0.336772
0.331224
0.330085
0.33206
0.336057
0.341655
0.348887
0.357887
0.368721
0.381464
0.39634
0.413922
0.435435
0.463376
0.503433
0.573703
0.36202
0.347991
0.338307
0.333463
0.332741
0.334766
0.338597
0.344064
0.351442
0.361029
0.373002
0.387488
0.404695
0.425052
0.449376
0.479208
0.517825
0.574825
0.362226
0.348565
0.339389
0.335006
0.334464
0.336359
0.339938
0.345281
0.352859
0.363109
0.376312
0.392685
0.412491
0.436127
0.464184
0.497537
0.537706
0.588675
0.362359
0.348884
0.339968
0.335763
0.335139
0.336745
0.340052
0.345356
0.353246
0.364235
0.378697
0.396965
0.419429
0.44658
0.479002
0.517289
0.56193
0.613597
0.3624
0.348935
0.340038
0.335724
0.334784
0.336023
0.339149
0.34459
0.352954
0.364753
0.380416
0.400386
0.425189
0.455448
0.491846
0.534988
0.585045
0.641204
0.362318
0.348687
0.33957
0.334869
0.333423
0.334286
0.337374
0.343136
0.352089
0.364669
0.3813
0.402461
0.428695
0.460575
0.498672
0.543475
0.595125
0.652649
0.362057
0.34805
0.338413
0.332955
0.33071
0.331049
0.334034
0.340031
0.349388
0.362407
0.379434
0.400874
0.427135
0.458542
0.495259
0.537233
0.584135
0.634812
0.361679
0.347134
0.336698
0.330105
0.326623
0.325901
0.328099
0.333522
0.342401
0.354938
0.371381
0.392027
0.417165
0.447016
0.481669
0.520993
0.564506
0.610931
0.361304
0.346171
0.33483
0.32698
0.322094
0.320016
0.320968
0.325229
0.332974
0.344347
0.35953
0.378745
0.402222
0.43019
0.462856
0.500334
0.542431
0.588152
0.36089
0.34499
0.332484
0.323091
0.316495
0.312717
0.312037
0.31471
0.320858
0.330588
0.344044
0.361412
0.382909
0.408795
0.439389
0.475029
0.515864
0.561344
0.360386
0.34338
0.329294
0.317967
0.309325
0.30357
0.301037
0.301923
0.306273
0.314138
0.325635
0.340946
0.360301
0.383984
0.412352
0.445819
0.484719
0.528874
0.359699
0.341021
0.324749
0.310982
0.299934
0.291993
0.287536
0.286634
0.289203
0.295192
0.304678
0.317859
0.335005
0.35642
0.382432
0.413401
0.449662
0.491222
0.358696
0.337442
0.318147
0.301343
0.287537
0.277321
0.271005
0.268482
0.269455
0.273711
0.281259
0.292317
0.307212
0.326273
0.349772
0.377945
0.41102
0.449051
0.35719
0.331909
0.308448
0.287941
0.271149
0.258738
0.250816
0.246994
0.246681
0.249451
0.255213
0.264199
0.276798
0.29337
0.314133
0.339199
0.368666
0.402561
0.354894
0.323091
0.293876
0.269054
0.249371
0.235156
0.226139
0.221501
0.220298
0.221872
0.226039
0.233029
0.243279
0.257178
0.274923
0.296542
0.322032
0.351376
0.351247
0.308196
0.27109
0.241774
0.219872
0.204806
0.195549
0.190722
0.189045
0.189704
0.192462
0.197539
0.205375
0.216377
0.230757
0.248532
0.269657
0.294079
0.342163
0.278582
0.23213
0.199774
0.177743
0.163566
0.155177
0.150763
0.148945
0.148918
0.150436
0.153667
0.158984
0.166779
0.177317
0.190687
0.20689
0.22591
0.299257
0.213862
0.158549
0.122458
0.0993005
0.0853624
0.0778076
0.0742246
0.0728934
0.0728898
0.0739206
0.0760804
0.0796539
0.0849774
0.0923393
0.101927
0.113861
0.128266
0.468011
0.529997
0.581286
0.600925
0.598369
0.580753
0.553352
0.527235
0.505391
0.488121
0.478161
0.479682
0.494946
0.51775
0.535982
0.540945
0.536438
0.55739
0.606862
0.66836
0.732134
0.79341
0.850135
0.901604
0.947745
0.988776
1.02503
1.05688
1.0847
1.10884
1.12964
1.1474
1.16243
1.17501
1.18542
1.19396
1.20092
1.20664
1.21034
1.21155
1.21042
1.20703
1.20144
1.1937
1.18384
1.17191
1.15793
1.14198
1.12411
1.10439
1.08292
1.05978
1.03508
1.00893
0.981468
0.952816
0.923115
0.892509
0.861144
0.829171
0.796739
0.763995
0.731085
0.698151
0.665328
0.632748
0.600532
0.568796
0.537649
0.50719
0.477514
0.448704
0.420841
0.393996
0.368233
0.343611
0.320179
0.297982
0.277053
0.257417
0.239087
0.222067
0.206354
0.191962
0.179004
0.167873
0.159546
0.155526
0.156726
0.156133
0.155638
0.154415
0.1533
0.15686
0.155675
0.152987
0.153066
0.157778
0.156412
0.155034
0.152497
0.149619
0.146912
0.144509
0.142375
0.140425
0.13863
0.137046
0.135727
0.134684
0.133868
0.133173
0.132475
0.131726
0.130985
0.130295
0.129672
0.129121
0.128653
0.128289
0.128063
0.127992
0.12804
0.128102
0.128052
0.127837
0.12755
0.127249
0.126955
0.126673
0.12642
0.126225
0.126128
0.126156
0.126288
0.126434
0.126452
0.126263
0.125988
0.125693
0.125399
0.125124
0.124895
0.124756
0.124751
0.124882
0.125067
0.125134
0.124942
0.124654
0.124345
0.124036
0.123739
0.123479
0.123302
0.123262
0.123389
0.12362
0.123755
0.123566
0.123268
0.122951
0.122632
0.12232
0.122035
0.121821
0.121742
0.121847
0.122101
0.122295
0.122122
0.121831
0.121537
0.121278
0.121113
0.121138
0.121491
0.122226
0.123207
0.124165
0.587751
0.834568
0.970074
1.01507
1.01468
0.99733
0.983465
0.983065
1.00106
1.052
1.14962
1.29778
1.48046
1.63377
1.71413
1.72723
1.69286
1.63972
1.59027
1.55259
1.52698
1.51217
1.50711
1.51083
1.52228
1.54023
1.56334
1.59025
1.61967
1.65044
1.68157
1.71228
1.74194
1.77008
1.79636
1.82054
1.84245
1.86142
1.87765
1.89155
1.90298
1.91173
1.91759
1.9204
1.91998
1.91621
1.909
1.89826
1.88397
1.86612
1.84472
1.81985
1.7916
1.76008
1.72545
1.68788
1.64759
1.60479
1.55973
1.51267
1.46386
1.41359
1.36213
1.30976
1.25674
1.20334
1.14981
1.0964
1.04333
0.99082
0.939075
0.888281
0.838616
0.790244
0.743316
0.697974
0.654347
0.612554
0.572699
0.534876
0.499162
0.465617
0.434288
0.405198
0.378349
0.353712
0.33122
0.310745
0.291609
0.276396
0.261249
0.249026
0.238594
0.229944
0.222245
0.216022
0.210555
0.205935
0.201662
0.197923
0.194033
0.190158
0.186551
0.183325
0.180477
0.177935
0.175638
0.173588
0.171805
0.170296
0.169042
0.167984
0.167033
0.16611
0.165234
0.164432
0.16371
0.163066
0.162498
0.16201
0.161616
0.161331
0.161154
0.161064
0.160968
0.160757
0.160479
0.160185
0.15989
0.1596
0.15932
0.159059
0.158835
0.158674
0.158602
0.15862
0.158634
0.158485
0.158241
0.15797
0.157692
0.157415
0.157152
0.15692
0.156748
0.156673
0.156713
0.156781
0.156647
0.156406
0.156138
0.155864
0.155591
0.155329
0.155095
0.154919
0.154845
0.154915
0.155056
0.15495
0.154724
0.154474
0.154218
0.153963
0.153719
0.153501
0.153341
0.153282
0.153392
0.15363
0.153573
0.153389
0.153197
0.153031
0.152922
0.152928
0.153194
0.153783
0.154308
0.153419
0.692347
1.12586
1.32257
1.38516
1.3928
1.39001
1.41251
1.45662
1.53974
1.66763
1.82792
1.98723
2.10309
2.14316
2.10733
2.02355
1.92619
1.84117
1.78044
1.74512
1.73159
1.73532
1.75212
1.77829
1.81068
1.84666
1.88417
1.92173
1.95837
1.99355
2.02703
2.05879
2.08888
2.11737
2.14432
2.16972
2.19353
2.21539
2.2355
2.25367
2.26961
2.28297
2.29344
2.30072
2.30453
2.30463
2.30083
2.29298
2.28095
2.26467
2.24414
2.21935
2.19038
2.15732
2.12033
2.07957
2.03527
1.98767
1.93705
1.88368
1.8279
1.77001
1.71035
1.64925
1.58705
1.52405
1.46059
1.39695
1.33342
1.27028
1.20777
1.14612
1.08555
1.02626
0.968433
0.912248
0.857862
0.805421
0.755061
0.706905
0.661062
0.617623
0.576663
0.53823
0.502345
0.469013
0.438232
0.40999
0.384234
0.361052
0.340052
0.321431
0.30488
0.290303
0.277491
0.266278
0.25653
0.248061
0.240718
0.234273
0.22842
0.223068
0.218241
0.213943
0.210125
0.206724
0.203677
0.200958
0.198556
0.196467
0.19467
0.193119
0.191745
0.190478
0.189308
0.188239
0.187272
0.186396
0.185605
0.184896
0.184278
0.183766
0.18337
0.183072
0.182816
0.182512
0.182168
0.181815
0.181465
0.181121
0.180782
0.180453
0.180146
0.179889
0.17971
0.179615
0.179551
0.179391
0.179156
0.178889
0.178608
0.178321
0.178033
0.177757
0.177522
0.177364
0.177306
0.177303
0.177184
0.176975
0.176732
0.176475
0.176212
0.175946
0.17569
0.17547
0.175326
0.175301
0.175369
0.175298
0.175124
0.174915
0.174693
0.174467
0.174241
0.174025
0.173844
0.17374
0.173777
0.173964
0.173987
0.173907
0.173815
0.173742
0.17369
0.173623
0.173514
0.173349
0.173039
0.172193
0.883968
1.54336
1.76769
1.83275
1.84255
1.854
1.87151
1.9144
1.9888
2.0839
2.1749
2.23208
2.23536
2.18522
2.10208
2.01355
1.94112
1.89503
1.87593
1.8793
1.89907
1.92962
1.96635
2.00577
2.04539
2.08361
2.11956
2.15295
2.18393
2.21289
2.24032
2.26669
2.29236
2.31757
2.34238
2.36672
2.39036
2.41308
2.43475
2.45501
2.47347
2.48971
2.50331
2.51389
2.52111
2.52464
2.52422
2.51963
2.51069
2.49728
2.47933
2.4568
2.42973
2.39818
2.36226
2.32214
2.27801
2.2301
2.17867
2.12402
2.06647
2.00634
1.94398
1.87974
1.81398
1.74703
1.67924
1.61093
1.54242
1.47399
1.40593
1.33847
1.27186
1.20632
1.14204
1.0792
1.018
0.95859
0.901126
0.845756
0.792613
0.741821
0.693488
0.647702
0.604532
0.564038
0.526272
0.491279
0.459067
0.429577
0.402763
0.378519
0.356733
0.33737
0.320211
0.305058
0.291731
0.280038
0.269783
0.260754
0.252738
0.245592
0.239234
0.233597
0.228601
0.224162
0.2202
0.216666
0.213529
0.210766
0.208343
0.206215
0.204324
0.202617
0.201069
0.199667
0.1984
0.197255
0.19622
0.19529
0.194465
0.193753
0.193155
0.192654
0.192215
0.191787
0.191362
0.190947
0.190549
0.190166
0.189799
0.189447
0.189121
0.188839
0.188619
0.188457
0.188322
0.188147
0.187929
0.187689
0.187438
0.18718
0.186921
0.186672
0.186455
0.186295
0.186198
0.18614
0.186028
0.18586
0.185664
0.185453
0.185233
0.18501
0.184793
0.184603
0.184471
0.184415
0.18442
0.184361
0.184235
0.184076
0.183903
0.183721
0.183536
0.183356
0.183203
0.18311
0.18311
0.183208
0.18323
0.183178
0.183096
0.182995
0.182852
0.182589
0.182115
0.181438
0.180705
0.180355
1.08131
1.93605
2.22673
2.31297
2.31821
2.28071
2.24215
2.22503
2.22889
2.23949
2.23855
2.21341
2.16342
2.09978
2.03896
1.99459
1.97308
1.97404
1.99305
2.02441
2.06281
2.10398
2.14479
2.1832
2.21811
2.24917
2.27663
2.30113
2.32349
2.34453
2.36502
2.38551
2.40638
2.42776
2.44964
2.47182
2.49399
2.51605
2.53774
2.55862
2.57823
2.59609
2.61173
2.62471
2.63463
2.64111
2.64384
2.64254
2.637
2.62703
2.61252
2.59341
2.56968
2.54134
2.5085
2.47125
2.42977
2.38425
2.33495
2.28211
2.22604
2.16705
2.10548
2.04167
1.97598
1.90874
1.84031
1.77101
1.70115
1.63104
1.56095
1.49113
1.42182
1.35324
1.28558
1.21905
1.1538
1.09002
1.02786
0.967497
0.909072
0.852739
0.798641
0.746906
0.697654
0.651009
0.607056
0.565909
0.527625
0.492134
0.459674
0.430124
0.403363
0.379284
0.357743
0.338569
0.321581
0.306583
0.293368
0.281727
0.271458
0.262395
0.254397
0.247344
0.241122
0.235623
0.230754
0.226439
0.222622
0.219252
0.21628
0.213656
0.211327
0.209247
0.207383
0.205713
0.204215
0.202871
0.201665
0.200586
0.199626
0.198784
0.198052
0.197414
0.196848
0.196326
0.19584
0.195386
0.194964
0.19457
0.194201
0.193856
0.193539
0.193259
0.193023
0.192826
0.192647
0.192459
0.192255
0.192043
0.191827
0.191609
0.191393
0.191187
0.191003
0.190855
0.190742
0.190649
0.190534
0.190392
0.190235
0.190068
0.189896
0.189721
0.189552
0.189402
0.189289
0.189218
0.189178
0.18911
0.189009
0.188888
0.188756
0.188617
0.188475
0.188336
0.188216
0.188136
0.18811
0.18813
0.188117
0.188057
0.187962
0.187826
0.187615
0.187256
0.186667
0.185889
0.18514
0.185023
1.24737
2.32083
2.67888
2.77138
2.71528
2.60029
2.48116
2.38256
2.30717
2.24642
2.19111
2.13764
2.08904
2.05183
2.03171
2.03082
2.04741
2.07731
2.11556
2.15754
2.19954
2.23889
2.27397
2.30405
2.32916
2.34988
2.36712
2.38196
2.39547
2.40861
2.42211
2.43651
2.45209
2.46895
2.487
2.50599
2.52563
2.54594
2.56656
2.58705
2.60687
2.62551
2.64245
2.65721
2.66934
2.67841
2.68408
2.68603
2.68398
2.67774
2.66714
2.65208
2.63251
2.6084
2.57981
2.54681
2.50952
2.46811
2.42278
2.37376
2.32132
2.26575
2.20735
2.14645
2.08339
2.0185
1.95212
1.88457
1.81615
1.74716
1.67787
1.60851
1.5393
1.47046
1.40215
1.33456
1.26784
1.20216
1.13767
1.07453
1.01291
0.952948
0.894843
0.838729
0.784776
0.733189
0.683986
0.637507
0.593927
0.553239
0.515508
0.480752
0.448949
0.420047
0.393957
0.370557
0.349693
0.331187
0.314838
0.300438
0.287778
0.276667
0.266927
0.258393
0.250914
0.244354
0.238593
0.233529
0.229077
0.225166
0.221728
0.218701
0.216028
0.213659
0.211557
0.209689
0.20803
0.206554
0.205241
0.204073
0.203037
0.202124
0.20132
0.200612
0.19998
0.19941
0.198893
0.198425
0.197998
0.197609
0.197253
0.196925
0.196627
0.196362
0.196129
0.195923
0.195732
0.195543
0.195353
0.195166
0.194982
0.194801
0.194624
0.194456
0.194303
0.194172
0.194059
0.193953
0.19384
0.193717
0.193588
0.193455
0.193321
0.193186
0.193055
0.192938
0.192842
0.192767
0.192704
0.192631
0.192542
0.192445
0.192343
0.192236
0.192128
0.192023
0.19193
0.191862
0.191822
0.191799
0.191758
0.19169
0.191591
0.191449
0.191231
0.190881
0.190348
0.189682
0.189084
0.18905
1.37116
2.63629
3.03049
3.09175
2.98268
2.8007
2.60964
2.44364
2.31324
2.2157
2.14505
2.09724
2.07056
2.06389
2.07515
2.10086
2.13658
2.17772
2.22015
2.26057
2.29667
2.32713
2.35146
2.36991
2.38324
2.39253
2.39903
2.40397
2.40848
2.4135
2.41972
2.42763
2.43745
2.44925
2.46289
2.47812
2.49478
2.51288
2.53205
2.55179
2.57155
2.59074
2.60882
2.62524
2.63951
2.65118
2.65984
2.66514
2.66678
2.66451
2.65814
2.64754
2.63261
2.61331
2.58964
2.56166
2.52944
2.49311
2.45283
2.40881
2.36128
2.31049
2.25674
2.20032
2.14155
2.08076
2.01827
1.9544
1.88944
1.82368
1.75736
1.69072
1.62395
1.55722
1.49069
1.42448
1.35873
1.29357
1.22911
1.16552
1.10291
1.04144
0.981355
0.922696
0.865727
0.810865
0.758155
0.707763
0.659873
0.614622
0.572136
0.532518
0.495838
0.462132
0.431393
0.403574
0.378581
0.356282
0.336508
0.319066
0.30375
0.290351
0.278662
0.268484
0.259629
0.251924
0.245218
0.239377
0.234286
0.229846
0.225971
0.222582
0.219612
0.217004
0.214709
0.212689
0.21091
0.20934
0.207956
0.206733
0.205655
0.204706
0.20387
0.203131
0.202475
0.201889
0.201364
0.200896
0.200477
0.200101
0.199761
0.199455
0.199178
0.198931
0.198711
0.198512
0.198327
0.198149
0.197978
0.197814
0.197656
0.197505
0.19736
0.197223
0.197096
0.196983
0.196879
0.196779
0.196675
0.196569
0.196462
0.196355
0.196249
0.196143
0.196042
0.195949
0.195868
0.195798
0.195731
0.195659
0.195581
0.195501
0.195419
0.195336
0.195254
0.195173
0.195102
0.195044
0.195
0.19496
0.194909
0.19484
0.194749
0.194622
0.194431
0.194141
0.193721
0.19322
0.192794
0.192803
1.46571
2.81228
3.21976
3.27063
3.12946
2.90305
2.66585
2.4614
2.3065
2.2006
2.13615
2.10486
2.09951
2.11379
2.14195
2.17864
2.21906
2.25919
2.29594
2.32717
2.3517
2.36916
2.37992
2.38481
2.38504
2.38198
2.377
2.37143
2.36638
2.36276
2.36125
2.36229
2.36608
2.37266
2.38187
2.39344
2.40731
2.42347
2.44151
2.46087
2.48094
2.50111
2.52074
2.53926
2.55612
2.57082
2.58289
2.59195
2.59766
2.59975
2.59799
2.59222
2.58231
2.56819
2.54985
2.52729
2.50058
2.4698
2.43509
2.39663
2.35461
2.30927
2.26087
2.20971
2.15608
2.10031
2.04273
1.98365
1.92336
1.86216
1.80028
1.73795
1.67532
1.61255
1.54974
1.48697
1.42433
1.36189
1.2997
1.23792
1.17658
1.11573
1.05594
0.997181
0.939574
0.883353
0.828706
0.775832
0.72494
0.676232
0.629903
0.586133
0.54508
0.506875
0.47161
0.439333
0.410041
0.383682
0.360152
0.339304
0.320959
0.304912
0.290944
0.278834
0.26836
0.259318
0.251515
0.244783
0.238972
0.233953
0.229611
0.22585
0.222585
0.219746
0.217271
0.215113
0.213229
0.211581
0.21014
0.208878
0.207772
0.206803
0.205952
0.205204
0.204542
0.203957
0.203438
0.202978
0.202572
0.202211
0.201889
0.201602
0.201345
0.201117
0.200912
0.200726
0.200555
0.200393
0.200241
0.200098
0.199963
0.199836
0.199716
0.199603
0.199498
0.199402
0.199311
0.199222
0.199132
0.199041
0.198953
0.198866
0.198781
0.198698
0.198619
0.198544
0.198477
0.198414
0.198352
0.198286
0.198219
0.198152
0.198086
0.198021
0.197956
0.197894
0.197838
0.19779
0.197748
0.197705
0.197654
0.197592
0.197514
0.197409
0.197257
0.197036
0.19673
0.19638
0.196098
0.196137
1.53954
2.87638
3.28872
3.33515
3.18074
2.93634
2.68239
2.46775
2.31185
2.21357
2.16249
2.14654
2.15506
2.17937
2.2125
2.2489
2.28425
2.31536
2.34008
2.35723
2.36649
2.36821
2.3633
2.35302
2.33886
2.32236
2.30501
2.28815
2.27293
2.26023
2.25073
2.24484
2.24276
2.24447
2.24982
2.25847
2.27037
2.28544
2.30318
2.32298
2.34417
2.36607
2.38802
2.40937
2.42952
2.44792
2.46405
2.47748
2.48784
2.4948
2.49812
2.4976
2.49308
2.48448
2.47175
2.45487
2.43388
2.40885
2.3799
2.34715
2.3108
2.27107
2.22819
2.18246
2.13417
2.08365
2.03125
1.97729
1.9221
1.86598
1.80919
1.75194
1.69442
1.63673
1.57894
1.52109
1.46317
1.40524
1.34714
1.28921
1.23151
1.17397
1.11673
1.05988
1.00355
0.947927
0.893206
0.839601
0.78734
0.736659
0.687797
0.640995
0.596481
0.554471
0.515153
0.478678
0.445154
0.414633
0.387111
0.362522
0.340751
0.321632
0.304966
0.290527
0.278081
0.267391
0.258234
0.250402
0.243706
0.23798
0.233081
0.228881
0.225275
0.222173
0.219498
0.217189
0.215192
0.213463
0.211964
0.210662
0.20953
0.208544
0.207685
0.206933
0.206274
0.205695
0.205185
0.204737
0.204343
0.203996
0.203691
0.20342
0.20318
0.202967
0.202777
0.202605
0.202448
0.202303
0.202168
0.202043
0.201926
0.201818
0.201717
0.201622
0.201534
0.201452
0.201374
0.201297
0.20122
0.201145
0.201071
0.201
0.200931
0.200864
0.2008
0.200739
0.200683
0.200628
0.200574
0.200517
0.20046
0.200404
0.20035
0.200297
0.200245
0.200196
0.20015
0.200109
0.200071
0.200031
0.199986
0.199932
0.199868
0.199785
0.19967
0.199509
0.199297
0.199065
0.198892
0.19895
1.58047
2.86304
3.26985
3.31738
3.16684
2.92781
2.68134
2.47701
2.33392
2.24955
2.21147
2.20568
2.2202
2.24573
2.27532
2.30388
2.32782
2.34477
2.35342
2.35337
2.34494
2.32903
2.30699
2.2804
2.25097
2.22041
2.19028
2.16198
2.13665
2.11517
2.09817
2.08604
2.07893
2.0768
2.07942
2.08642
2.09756
2.11258
2.13088
2.15182
2.17469
2.19881
2.22349
2.24804
2.27184
2.29429
2.31484
2.33302
2.34839
2.36061
2.36936
2.37443
2.37561
2.3728
2.3659
2.35489
2.33976
2.32056
2.29738
2.27033
2.23959
2.20534
2.16782
2.12732
2.08413
2.03861
1.99111
1.94201
1.89167
1.84044
1.78862
1.73648
1.68421
1.63192
1.57967
1.52747
1.47515
1.42301
1.37091
1.31871
1.26632
1.21368
1.16081
1.10776
1.05462
1.00153
0.948667
0.896219
0.844411
0.793488
0.743709
0.695342
0.648665
0.603951
0.561466
0.521454
0.484128
0.449656
0.418152
0.389664
0.364177
0.341606
0.32181
0.304598
0.289745
0.277009
0.266142
0.256902
0.249066
0.242426
0.236803
0.232036
0.22799
0.22455
0.221618
0.219116
0.216976
0.215141
0.213566
0.212211
0.211044
0.210035
0.209163
0.208406
0.207747
0.207172
0.20667
0.206231
0.205848
0.205512
0.205218
0.20496
0.204733
0.204532
0.204353
0.204193
0.204048
0.203916
0.203795
0.203683
0.203581
0.203486
0.203398
0.203316
0.20324
0.203169
0.203101
0.203035
0.202969
0.202905
0.202843
0.202783
0.202726
0.20267
0.202617
0.202566
0.202517
0.202469
0.202422
0.202373
0.202324
0.202276
0.20223
0.202186
0.202143
0.202102
0.202063
0.202028
0.201994
0.201958
0.201917
0.201872
0.20182
0.201755
0.20167
0.201557
0.201414
0.201267
0.201169
0.201238
1.59725
2.79858
3.19389
3.24784
3.11428
2.89732
2.67426
2.49198
2.36774
2.29794
2.26959
2.26848
2.28271
2.30329
2.32383
2.33993
2.34872
2.34862
2.33901
2.32013
2.29288
2.25866
2.21919
2.17636
2.13211
2.08828
2.0465
2.00817
1.97437
1.94593
1.92336
1.90693
1.89668
1.89247
1.89401
1.90085
1.91241
1.92812
1.94732
1.96935
1.99355
2.01929
2.04592
2.07283
2.09941
2.1251
2.14935
2.17166
2.19157
2.20868
2.22264
2.23316
2.24
2.24298
2.24195
2.23684
2.22759
2.21423
2.19678
2.17534
2.15005
2.12107
2.08864
2.05301
2.0145
1.97347
1.9303
1.88542
1.83925
1.79221
1.74469
1.69701
1.64942
1.60211
1.55515
1.50857
1.46264
1.41703
1.37148
1.32578
1.27974
1.23322
1.18613
1.13843
1.09015
1.04135
0.992133
0.942669
0.893146
0.843788
0.794845
0.746591
0.699317
0.653329
0.608937
0.566453
0.52617
0.488361
0.453255
0.421027
0.391785
0.365563
0.342318
0.321936
0.304242
0.289019
0.276021
0.264992
0.255676
0.247834
0.241246
0.235715
0.23107
0.227166
0.223879
0.221105
0.21876
0.216774
0.215086
0.21365
0.212424
0.211376
0.210477
0.209704
0.209036
0.208458
0.207957
0.207522
0.207144
0.206815
0.206527
0.206276
0.206056
0.205863
0.205692
0.20554
0.205403
0.20528
0.205167
0.205065
0.204971
0.204886
0.204806
0.204733
0.204664
0.2046
0.204539
0.20448
0.204422
0.204366
0.204311
0.204259
0.204209
0.20416
0.204113
0.204068
0.204024
0.203982
0.203939
0.203895
0.203852
0.20381
0.20377
0.20373
0.203693
0.203656
0.203622
0.20359
0.203558
0.203525
0.203489
0.20345
0.203407
0.203356
0.203293
0.203214
0.20312
0.20303
0.202982
0.203054
1.59733
2.70391
3.08532
3.14982
3.04145
2.85612
2.66458
2.50914
2.4048
2.34763
2.32532
2.32455
2.33425
2.3462
2.35471
2.35608
2.34816
2.33001
2.30168
2.26402
2.21848
2.16693
2.1115
2.05442
1.99782
1.94362
1.89347
1.84865
1.81008
1.77837
1.75377
1.73633
1.72587
1.72205
1.72444
1.73252
1.74534
1.76197
1.7817
1.8039
1.82802
1.85352
1.87992
1.90674
1.93355
1.95989
1.98534
2.00946
2.03185
2.05208
2.06977
2.08458
2.09617
2.10427
2.10865
2.10912
2.10554
2.09785
2.08602
2.07006
2.05006
2.02615
1.99852
1.96742
1.93314
1.89605
1.85656
1.81514
1.77228
1.72848
1.68422
1.63995
1.59601
1.55267
1.51035
1.46924
1.42907
1.38955
1.35039
1.31131
1.27202
1.23225
1.19182
1.15055
1.10836
1.06522
1.02117
0.976289
0.930712
0.884621
0.838234
0.791801
0.745602
0.699944
0.655152
0.611567
0.569535
0.529399
0.491482
0.456071
0.423402
0.39364
0.366871
0.343096
0.322235
0.304136
0.288592
0.275359
0.264176
0.254781
0.24692
0.240363
0.2349
0.23035
0.226559
0.223396
0.220751
0.218536
0.216676
0.21511
0.213788
0.212669
0.211719
0.210909
0.210216
0.209622
0.209111
0.208669
0.208287
0.207957
0.207669
0.207419
0.207201
0.207009
0.206841
0.206692
0.206559
0.206439
0.206332
0.206234
0.206145
0.206063
0.205988
0.205918
0.205853
0.205793
0.205735
0.205679
0.205625
0.205573
0.205522
0.205473
0.205426
0.205381
0.205337
0.205295
0.205253
0.205213
0.205172
0.205132
0.205092
0.205053
0.205015
0.204978
0.204943
0.204909
0.204876
0.204845
0.204814
0.204783
0.204749
0.204715
0.204677
0.204636
0.204588
0.204532
0.20447
0.204417
0.204399
0.20447
1.58614
2.59337
2.96057
3.0381
2.95869
2.80869
2.65095
2.52261
2.43662
2.38944
2.37017
2.36695
2.36986
2.37158
2.36713
2.35348
2.32909
2.29365
2.24785
2.19314
2.13154
2.06545
1.99742
1.92995
1.86533
1.80549
1.75191
1.70563
1.66725
1.63696
1.61467
1.60006
1.59264
1.59182
1.59697
1.60744
1.62211
1.63975
1.65957
1.68099
1.70351
1.72671
1.75025
1.77385
1.79731
1.82043
1.84303
1.86494
1.8859
1.90566
1.92389
1.94023
1.95431
1.96574
1.97414
1.97918
1.98057
1.97807
1.97151
1.96081
1.94593
1.92692
1.90391
1.87707
1.84667
1.81308
1.7767
1.73803
1.69764
1.6561
1.61401
1.57193
1.53035
1.48999
1.45137
1.41432
1.3787
1.34426
1.31072
1.27772
1.2449
1.21189
1.17835
1.144
1.10862
1.07206
1.03425
0.995171
0.954888
0.91351
0.871198
0.828159
0.784637
0.740913
0.697299
0.654135
0.611784
0.570622
0.531031
0.49338
0.458006
0.4252
0.39518
0.368084
0.343957
0.322754
0.30435
0.288552
0.275125
0.263807
0.254331
0.246437
0.239886
0.23446
0.229971
0.226257
0.22318
0.220628
0.218507
0.21674
0.215263
0.214026
0.212986
0.212109
0.211365
0.210733
0.210193
0.20973
0.209332
0.208989
0.208692
0.208435
0.208211
0.208015
0.207843
0.207692
0.207557
0.207436
0.207328
0.20723
0.207141
0.207059
0.206984
0.206914
0.206849
0.206788
0.20673
0.206674
0.20662
0.206568
0.206518
0.206469
0.206422
0.206377
0.206333
0.20629
0.206249
0.206208
0.206168
0.206128
0.206088
0.20605
0.206012
0.205976
0.205941
0.205907
0.205874
0.205842
0.205811
0.20578
0.205748
0.205715
0.205681
0.205646
0.205607
0.205566
0.205526
0.205495
0.205494
0.20556
1.56717
2.47577
2.82936
2.92079
2.8708
2.75578
2.63048
2.52706
2.45691
2.41731
2.39911
2.39211
2.3876
2.37914
2.36243
2.33498
2.29586
2.24533
2.18471
2.11605
2.04197
1.96539
1.88922
1.8162
1.74861
1.68824
1.63627
1.5933
1.55949
1.53458
1.51805
1.5092
1.50725
1.51137
1.52073
1.53454
1.55169
1.57083
1.59113
1.61192
1.63267
1.65292
1.67237
1.69084
1.7083
1.72482
1.74057
1.75572
1.77045
1.78484
1.79886
1.81237
1.82505
1.83651
1.84626
1.8538
1.8586
1.8602
1.8582
1.8523
1.84228
1.82803
1.80952
1.78684
1.76017
1.72981
1.69616
1.65973
1.62113
1.58101
1.54009
1.49905
1.45877
1.42031
1.38375
1.34918
1.31658
1.28581
1.25661
1.22862
1.20142
1.17454
1.14753
1.11998
1.09154
1.06192
1.03092
0.998413
0.964352
0.928761
0.891723
0.853379
0.813919
0.773575
0.732624
0.691378
0.650187
0.609429
0.569508
0.530832
0.493809
0.458818
0.426194
0.396204
0.36903
0.344761
0.323387
0.304808
0.288853
0.275295
0.263878
0.254336
0.246406
0.239844
0.23443
0.229968
0.226294
0.223266
0.220768
0.218703
0.216993
0.215572
0.214389
0.213399
0.212568
0.211867
0.211273
0.210767
0.210335
0.209965
0.209645
0.209369
0.20913
0.208921
0.208738
0.208577
0.208435
0.208307
0.208193
0.20809
0.207995
0.207909
0.20783
0.207756
0.207686
0.207621
0.207559
0.2075
0.207443
0.207388
0.207335
0.207283
0.207234
0.207185
0.207139
0.207093
0.207049
0.207006
0.206963
0.206922
0.206881
0.20684
0.206801
0.206764
0.206727
0.206692
0.206658
0.206624
0.206592
0.20656
0.206528
0.206496
0.206464
0.206432
0.2064
0.206368
0.20634
0.206323
0.206331
0.20639
1.5424
2.35572
2.6965
2.80152
2.77931
2.69666
2.60067
2.5191
2.46224
2.42844
2.41036
2.39941
2.38807
2.37068
2.34352
2.30462
2.25352
2.19105
2.11909
2.0403
1.95785
1.87509
1.79524
1.72109
1.65481
1.59784
1.55093
1.51421
1.48732
1.4696
1.4602
1.45814
1.46245
1.47216
1.48635
1.50412
1.52448
1.54616
1.56827
1.59
1.6106
1.62946
1.64607
1.66017
1.67166
1.68073
1.68776
1.69329
1.69797
1.70244
1.70722
1.71268
1.7189
1.72572
1.73274
1.73938
1.74491
1.74862
1.74979
1.74779
1.74211
1.73237
1.71831
1.69982
1.67692
1.64981
1.6188
1.58437
1.54716
1.50788
1.46736
1.42649
1.3868
1.34876
1.31275
1.27907
1.24789
1.21918
1.19278
1.16836
1.14547
1.12361
1.10225
1.08084
1.05892
1.03605
1.0119
0.986217
0.958832
0.92966
0.898691
0.865979
0.831641
0.795847
0.758814
0.720812
0.68215
0.643187
0.604316
0.565953
0.52853
0.492479
0.458208
0.426084
0.396415
0.369429
0.345251
0.323904
0.305313
0.289325
0.27573
0.264277
0.254706
0.246756
0.240183
0.234766
0.23031
0.226648
0.223637
0.22116
0.219119
0.217433
0.216037
0.214877
0.21391
0.2131
0.212418
0.211842
0.211352
0.210933
0.210575
0.210265
0.209998
0.209765
0.209562
0.209383
0.209225
0.209084
0.208957
0.208843
0.208739
0.208643
0.208555
0.208472
0.208395
0.208323
0.208254
0.208188
0.208124
0.208063
0.208004
0.207947
0.207892
0.207839
0.207787
0.207737
0.207688
0.20764
0.207594
0.207548
0.207504
0.207461
0.207419
0.207379
0.207339
0.207302
0.207265
0.20723
0.207196
0.207162
0.207129
0.207098
0.207067
0.207037
0.207009
0.206983
0.206963
0.206954
0.206966
0.207018
1.51034
2.22979
2.55856
2.67699
2.68111
2.62848
2.55919
2.49713
2.45186
2.42294
2.40481
2.39044
2.37344
2.34886
2.31349
2.26577
2.20567
2.13449
2.05462
1.96926
1.88207
1.79674
1.71664
1.64451
1.58221
1.53078
1.49044
1.46082
1.44115
1.43045
1.42764
1.4317
1.4416
1.45642
1.47524
1.49719
1.52134
1.54671
1.57232
1.5972
1.62035
1.64082
1.65778
1.67062
1.67897
1.68282
1.68249
1.67867
1.67231
1.66457
1.65664
1.64962
1.64434
1.64128
1.64049
1.64161
1.64394
1.64658
1.64853
1.64877
1.6464
1.64063
1.63087
1.61666
1.59777
1.57416
1.54601
1.5137
1.47781
1.43912
1.39852
1.35767
1.31749
1.27868
1.24189
1.20765
1.17634
1.1481
1.12287
1.10042
1.08034
1.06212
1.04518
1.02889
1.01267
0.995974
0.978327
0.959343
0.938725
0.916265
0.891841
0.865407
0.836986
0.806666
0.774594
0.74097
0.706054
0.670164
0.633674
0.596964
0.560447
0.524558
0.489749
0.456462
0.425098
0.395996
0.369413
0.345512
0.324348
0.305874
0.289961
0.276408
0.264976
0.255409
0.247453
0.24087
0.23544
0.23097
0.227296
0.224274
0.221789
0.219741
0.21805
0.216651
0.215488
0.214519
0.213707
0.213023
0.212444
0.211952
0.211532
0.21117
0.210858
0.210588
0.210351
0.210144
0.209961
0.209798
0.209652
0.20952
0.2094
0.20929
0.209189
0.209094
0.209005
0.208921
0.208842
0.208766
0.208694
0.208624
0.208556
0.208491
0.208429
0.208368
0.208309
0.208253
0.208198
0.208144
0.208092
0.208042
0.207993
0.207946
0.2079
0.207856
0.207813
0.207772
0.207733
0.207695
0.207659
0.207624
0.20759
0.207558
0.207527
0.207499
0.207473
0.207451
0.207436
0.207432
0.207446
0.207492
1.47736
2.11758
2.43605
2.56524
2.5904
2.56155
2.51319
2.46631
2.43006
2.40505
2.38721
2.37082
2.35036
2.32147
2.28127
2.22846
2.16329
2.08734
2.00336