/*--------------------------------*- C++ -*----------------------------------*\
  =========                 |
  \\      /  F ield         | OpenFOAM: The Open Source CFD Toolbox
   \\    /   O peration     | Website:  https://openfoam.org
    \\  /    A nd           | Version:  9
     \\/     M anipulation  |
\*---------------------------------------------------------------------------*/
FoamFile
{
    format      ascii;
    class       volScalarField;
    location    "0.02";
    object      nut;
}
// * * * * * * * * * * * * * * * * * * * * * * * * * * * * * * * * * * * * * //

dimensions      [0 2 -1 0 0 0 0];

internalField   nonuniform List<scalar> 
12225
(
3.03333e-05
1.81797e-05
1.17705e-05
8.73119e-06
7.52963e-06
7.22926e-06
7.29183e-06
7.43465e-06
7.53222e-06
7.56094e-06
7.55632e-06
7.58068e-06
7.69891e-06
7.96557e-06
8.48454e-06
9.95651e-06
1.54541e-05
3.17462e-05
0.000163514
0.000100205
8.11408e-05
7.46394e-05
7.38262e-05
7.52454e-05
7.67192e-05
7.71149e-05
7.59828e-05
7.3456e-05
7.01298e-05
6.68459e-05
6.44603e-05
6.37165e-05
6.55667e-05
6.99797e-05
7.39608e-05
8.26913e-05
0.000341577
0.000218649
0.000177111
0.000161123
0.000157565
0.00015934
0.000161491
0.000161244
0.000157514
0.000150533
0.000141503
0.000132222
0.000124635
0.000120428
0.000120945
0.000124045
0.000113922
0.000112255
0.000505223
0.000347306
0.000283235
0.000255578
0.000246858
0.000246932
0.000248498
0.000247212
0.00024115
0.000230263
0.00021586
0.000200209
0.000186107
0.000176237
0.000172136
0.000168632
0.000143767
0.000132539
0.000629423
0.000468727
0.000389846
0.000352039
0.000337671
0.000335002
0.000335229
0.000332843
0.000325111
0.000311462
0.000292925
0.000271735
0.000251061
0.000234305
0.000223054
0.000209488
0.000171464
0.000147797
0.00071433
0.000573154
0.00049004
0.00044597
0.000427015
0.00042157
0.000420291
0.000417024
0.000408401
0.000393247
0.000372094
0.000346773
0.000320307
0.000296268
0.000276018
0.000250199
0.000198626
0.000161029
0.000769036
0.000656937
0.000579084
0.000533628
0.000512198
0.000504772
0.00050236
0.000498669
0.000489955
0.000474477
0.000452204
0.000424357
0.000393398
0.000362439
0.000332202
0.000292817
0.000227041
0.000174662
0.000803087
0.000720581
0.000654384
0.000612169
0.000590856
0.000582794
0.000580017
0.000576532
0.000568481
0.00055369
0.000531586
0.000502729
0.000468789
0.000431929
0.000391818
0.000338706
0.000258745
0.000190663
0.000823881
0.000766866
0.000715267
0.000679801
0.0006611
0.000653959
0.000651792
0.000649214
0.000642473
0.000629135
0.00060816
0.000579508
0.00054404
0.000502767
0.000454104
0.000388623
0.000295491
0.000210893
0.000836474
0.00079937
0.000762517
0.000735791
0.000721646
0.000716862
0.000716269
0.000715236
0.000710287
0.000698879
0.000679579
0.000651903
0.000616071
0.000572092
0.000517267
0.000442466
0.000338739
0.00023767
0.000844093
0.000821554
0.000797816
0.000780336
0.000771871
0.000770486
0.000772236
0.000773238
0.000770337
0.000760974
0.000743426
0.000716962
0.000681471
0.000636408
0.000578462
0.000498853
0.000389126
0.000273832
0.000848336
0.000835097
0.000821092
0.000811456
0.000808405
0.000810576
0.000814852
0.000817944
0.000816889
0.000809162
0.000792851
0.000767198
0.000732154
0.000687223
0.000629212
0.000549885
0.000440229
0.00031645
0.000851078
0.000844428
0.000838128
0.000835319
0.000837329
0.000842984
0.000849775
0.000854882
0.000855492
0.000849006
0.000833429
0.000808107
0.000773382
0.000729368
0.000673745
0.000599546
0.000497464
0.00037401
0.000852981
0.000851193
0.000851142
0.000854382
0.000861233
0.000870426
0.000879842
0.000886964
0.000889009
0.00088317
0.000867345
0.000841154
0.000805768
0.000762587
0.00071102
0.000646246
0.000559601
0.000448701
0.000854182
0.000855566
0.000859931
0.000867779
0.000878541
0.000890727
0.000902405
0.000911192
0.000914107
0.000907944
0.000890429
0.000861635
0.000823976
0.000780727
0.000733693
0.000680952
0.000616017
0.000531709
0.000854833
0.00085793
0.000864847
0.000875506
0.000888734
0.000902864
0.000916059
0.000925889
0.000928949
0.000921432
0.000900843
0.000867785
0.000826124
0.000781243
0.000737468
0.000695863
0.000653151
0.000602597
0.000855069
0.000858776
0.00086669
0.000878472
0.00089267
0.0009076
0.00092151
0.00093183
0.000934649
0.00092553
0.000901704
0.0008642
0.00081809
0.000770463
0.000727551
0.000692621
0.000665241
0.000641706
0.000854977
0.000858531
0.000866343
0.00087798
0.000891977
0.000906814
0.000920886
0.000931544
0.000934566
0.00092513
0.000900217
0.000860881
0.000812554
0.000762954
0.000719099
0.000685302
0.00066278
0.00065036
0.000854541
0.000857278
0.000864022
0.000874308
0.000886873
0.000900556
0.000914076
0.000925003
0.000929259
0.000922032
0.000900016
0.000863569
0.000817201
0.000767933
0.000722636
0.000686032
0.000660237
0.000645458
0.000853749
0.000854823
0.000859077
0.000866004
0.000874708
0.000884638
0.000895234
0.000904864
0.000910253
0.000907093
0.000891796
0.000863364
0.000824219
0.00077944
0.000734977
0.000695916
0.000665551
0.000645427
0.000852604
0.000850933
0.000850957
0.000852289
0.000854618
0.000858216
0.0008634
0.000869494
0.000874115
0.000873662
0.000864602
0.000844978
0.000815328
0.000778586
0.000739152
0.0007017
0.0006702
0.000647443
0.000850494
0.000843567
0.000836055
0.000828247
0.000820862
0.00081526
0.00081271
0.000813287
0.000815273
0.000815732
0.00081148
0.000800149
0.000780958
0.000754944
0.000724651
0.00069354
0.000665327
0.000643411
0.000846061
0.000829013
0.000809084
0.000788255
0.000768573
0.000752364
0.00074147
0.000736075
0.000734592
0.000734509
0.000733144
0.000728276
0.000718582
0.000703843
0.000684954
0.000663796
0.000643013
0.000625689
0.000836116
0.000800531
0.00076259
0.000726318
0.000694207
0.000668635
0.000651192
0.000641237
0.000636832
0.000635632
0.000635511
0.000634811
0.000632341
0.000627364
0.000619652
0.000609641
0.000598582
0.000588587
0.000813624
0.000747586
0.000688293
0.00063818
0.000597268
0.000566662
0.000546329
0.000534502
0.000528687
0.000526609
0.000526723
0.000528123
0.000530172
0.000532179
0.000533371
0.000533173
0.000531609
0.000529643
0.00076467
0.000657532
0.000580757
0.000524093
0.000481663
0.000451958
0.000433036
0.000422235
0.000416725
0.000414429
0.00041438
0.00041642
0.00042056
0.00042644
0.000433191
0.000439733
0.000445302
0.000449936
0.000666559
0.000522144
0.000442354
0.000390722
0.000355255
0.000331793
0.000317665
0.000309952
0.000305979
0.000304101
0.000303904
0.00030578
0.000310214
0.000317188
0.000325995
0.000335499
0.000344661
0.000353014
0.000495787
0.000349144
0.000287195
0.000251259
0.000228022
0.000213632
0.000205638
0.000201588
0.000199486
0.000198334
0.000198154
0.000199547
0.000203118
0.000209022
0.000216819
0.00022566
0.000234689
0.00024339
0.000262208
0.000171762
0.000139325
0.000121732
0.000111003
0.000104894
0.00010177
0.000100235
9.93539e-05
9.87954e-05
9.87152e-05
9.94953e-05
0.000101482
0.000104808
0.00010933
0.000114712
0.000120601
0.000126765
5.94629e-05
4.24995e-05
3.15235e-05
2.43554e-05
1.97232e-05
1.68916e-05
1.53192e-05
1.4546e-05
1.4235e-05
1.41967e-05
1.43642e-05
1.47492e-05
1.5403e-05
1.6389e-05
1.77624e-05
1.956e-05
2.18056e-05
2.45201e-05
0.000145313
9.09123e-05
9.52654e-05
9.67969e-05
9.64952e-05
9.49567e-05
9.25718e-05
9.02239e-05
8.81683e-05
8.64559e-05
8.53672e-05
8.53268e-05
8.65658e-05
8.85395e-05
9.01366e-05
9.05941e-05
9.01223e-05
9.14843e-05
9.51989e-05
9.97398e-05
0.000104267
0.000108442
0.000112164
0.000115433
0.000118282
0.000120752
0.000122887
0.000124725
0.000126302
0.000127648
0.000128789
0.000129748
0.000130545
0.0001312
0.00013173
0.000132151
0.000132479
0.000132729
0.000132923
0.000132985
0.000132921
0.000132738
0.000132439
0.000132025
0.000131497
0.000130855
0.0001301
0.000129231
0.00012825
0.000127157
0.000125953
0.00012464
0.00012322
0.000121694
0.000120066
0.00011834
0.000116519
0.000114606
0.000112608
0.000110529
0.000108375
0.000106151
0.000103863
0.000101517
9.91206e-05
9.66787e-05
9.41981e-05
9.16853e-05
8.91465e-05
8.65882e-05
8.40169e-05
8.14389e-05
7.88609e-05
7.62898e-05
7.37328e-05
7.11975e-05
6.86917e-05
6.62241e-05
6.38035e-05
6.14392e-05
5.91408e-05
5.6918e-05
5.47816e-05
5.2748e-05
5.08528e-05
4.91761e-05
4.78454e-05
4.69868e-05
4.72891e-05
0.000203321
4.61105e-05
4.55627e-05
4.52598e-05
0.000200959
0.000198713
0.000193789
0.000193528
0.000198982
0.00019684
0.000194465
0.00019082
0.000186795
0.000182997
0.000179588
0.000176525
0.000173709
0.000171103
0.000168769
0.000166767
0.000165106
0.000163722
0.000162487
0.000161258
0.000159977
0.00015871
0.000157509
0.000156392
0.000155362
0.000154434
0.000153633
0.000152994
0.000152533
0.000152207
0.000151893
0.000151448
0.000150817
0.0001501
0.000149367
0.000148642
0.000147932
0.000147254
0.000146644
0.000146144
0.000145783
0.000145532
0.000145289
0.000144901
0.000144283
0.000143568
0.000142829
0.000142091
0.000141374
0.000140709
0.000140143
0.000139722
0.000139443
0.000139216
0.000138856
0.000138219
0.000137475
0.000136708
0.000135941
0.000135186
0.000134472
0.000133846
0.000133365
0.000133055
0.000132847
0.000132531
0.000131881
0.000131114
0.000130327
0.000129536
0.000128753
0.000127999
0.000127318
0.000126774
0.000126413
0.000126196
0.000125911
0.000125261
0.00012449
0.000123714
0.000122974
0.000122325
0.000121866
0.000121729
0.00012196
0.000122425
0.000122851
4.04735e-05
0.000154251
0.000249733
0.000309181
0.000343896
0.000361914
0.000369306
0.000364215
0.000352563
0.000345243
0.000348261
0.000361233
0.000377693
0.000389484
0.000392049
0.000386578
0.000377092
0.000367964
0.000362565
0.000362074
0.000366395
0.000375236
0.000388372
0.000405598
0.000426644
0.000451141
0.000478605
0.000508452
0.000540029
0.000572651
0.000605633
0.000638321
0.000670098
0.000700388
0.00072865
0.000754368
0.000777054
0.000795442
0.000811269
0.000826216
0.000840412
0.000853814
0.000866356
0.000877973
0.000888599
0.000898173
0.000906636
0.000913933
0.000920016
0.000924843
0.000928379
0.000930598
0.000931482
0.000931019
0.00092921
0.000926063
0.000921594
0.000915829
0.000908801
0.00090055
0.000891124
0.000880573
0.000868953
0.000856323
0.000842739
0.000828261
0.000812943
0.000796838
0.000779994
0.000762454
0.000744257
0.000725438
0.000706026
0.000686051
0.000665543
0.000644535
0.000623065
0.000601184
0.000578953
0.00055645
0.000533773
0.000511037
0.000488374
0.000465928
0.000443834
0.00042219
0.000401003
0.000380596
0.00036379
0.000359194
0.000338302
0.000324847
0.000316441
0.000332357
0.000326367
0.000312585
0.00031092
0.000331936
0.000327808
0.00032341
0.0003161
0.000307267
0.000298455
0.000290326
0.000283025
0.000276422
0.000270347
0.000264807
0.000259867
0.000255561
0.000251863
0.000248663
0.000245747
0.00024289
0.000240122
0.000237518
0.000235112
0.000232909
0.000230913
0.000229146
0.000227647
0.000226454
0.000225571
0.000224942
0.000224359
0.000223547
0.000222608
0.000221657
0.000220733
0.000219849
0.000219018
0.000218265
0.000217634
0.000217174
0.000216924
0.000216865
0.000216812
0.000216414
0.000215819
0.000215159
0.000214489
0.000213831
0.000213215
0.000212688
0.000212309
0.000212134
0.000212178
0.000212269
0.000211945
0.000211401
0.000210786
0.000210151
0.000209518
0.00020891
0.000208372
0.000207967
0.000207767
0.000207818
0.000207981
0.000207651
0.000207078
0.000206427
0.000205743
0.000205043
0.000204343
0.000203679
0.000203111
0.000202713
0.000202554
0.000202554
0.000201939
0.000200958
0.000199756
0.000198325
0.0001966
0.000194542
0.00019236
0.000190697
0.000190554
0.000191947
4.83473e-05
0.000214001
0.00036571
0.000464129
0.000520333
0.000546912
0.000551642
0.000536813
0.000519806
0.000512917
0.000517875
0.000529142
0.000538942
0.000542205
0.000538963
0.000533387
0.000530957
0.000535985
0.000550805
0.00057604
0.000611301
0.000655646
0.000707727
0.000765838
0.000828033
0.000892307
0.000956789
0.00101991
0.00108047
0.00113768
0.0011911
0.00124054
0.001286
0.00132761
0.00136552
0.00139993
0.00143109
0.00145901
0.00148535
0.00151056
0.00153464
0.00155753
0.00157909
0.00159921
0.00161776
0.00163462
0.00164968
0.00166283
0.00167396
0.00168299
0.00168984
0.00169444
0.00169675
0.00169672
0.00169435
0.00168961
0.00168253
0.00167314
0.00166148
0.00164761
0.0016316
0.00161355
0.00159353
0.00157164
0.001548
0.0015227
0.00149583
0.00146749
0.00143776
0.00140673
0.00137446
0.001341
0.00130642
0.00127076
0.00123408
0.00119643
0.00115787
0.00111849
0.00107839
0.00103768
0.000996523
0.000955092
0.000913598
0.00087228
0.000831419
0.000791359
0.000752528
0.000715463
0.000680943
0.000649023
0.000619222
0.000591102
0.000566241
0.00054572
0.000525594
0.000507446
0.000492134
0.000480891
0.000467094
0.000454669
0.000441541
0.000428006
0.000414942
0.000402826
0.000391767
0.000381729
0.000372597
0.0003643
0.000356819
0.000350143
0.00034423
0.000339001
0.000334312
0.000329963
0.00032589
0.0003221
0.000318602
0.000315394
0.000312467
0.000309828
0.000307495
0.000305478
0.000303773
0.000302362
0.000301147
0.000299917
0.000298653
0.000297399
0.000296188
0.00029504
0.00029396
0.000292961
0.00029207
0.00029132
0.000290738
0.000290338
0.000290039
0.000289578
0.000288963
0.000288274
0.000287561
0.000286851
0.000286169
0.000285549
0.000285035
0.000284667
0.000284477
0.000284405
0.000284117
0.000283641
0.000283071
0.000282462
0.000281841
0.000281229
0.000280661
0.000280183
0.000279844
0.000279696
0.000279704
0.000279442
0.000278958
0.00027836
0.000277704
0.00027701
0.000276295
0.000275583
0.000274917
0.000274341
0.000273912
0.000273651
0.000272914
0.000271751
0.000270223
0.000268285
0.000265815
0.000262695
0.000259104
0.000255894
0.000254431
0.000255351
5.46114e-05
0.000316447
0.00051046
0.000617378
0.000664626
0.000673853
0.000660778
0.000642344
0.000629413
0.000625619
0.000628721
0.000634093
0.000638418
0.000641926
0.000648172
0.000662008
0.000687408
0.000726295
0.000778593
0.000842768
0.000916329
0.000996245
0.00107932
0.00116257
0.00124351
0.00132033
0.0013919
0.00145776
0.00151791
0.00157267
0.00162258
0.00166823
0.0017102
0.00174901
0.00178509
0.00181876
0.00185025
0.00188002
0.00190884
0.00193685
0.00196397
0.00199007
0.00201499
0.00203856
0.00206061
0.00208096
0.00209945
0.00211591
0.00213019
0.00214215
0.00215164
0.00215856
0.00216279
0.00216427
0.00216291
0.00215869
0.00215158
0.00214159
0.00212876
0.00211313
0.00209477
0.00207379
0.00205028
0.00202438
0.0019962
0.00196588
0.00193356
0.00189935
0.00186337
0.00182574
0.00178655
0.00174588
0.00170382
0.00166042
0.00161577
0.00156992
0.00152295
0.00147495
0.00142603
0.00137632
0.00132596
0.00127516
0.00122413
0.0011731
0.00112238
0.0010723
0.00102325
0.000975649
0.000929846
0.000886076
0.000844701
0.000805542
0.000769133
0.000735689
0.000704803
0.000676643
0.000651013
0.000627901
0.00060629
0.000586623
0.000567974
0.000550182
0.000533498
0.000518114
0.000504075
0.000491315
0.000479686
0.000469095
0.000459493
0.000450833
0.000443057
0.000436086
0.000429821
0.00042413
0.000418919
0.000414134
0.000409744
0.000405724
0.000402052
0.000398716
0.000395708
0.000393014
0.000390614
0.000388491
0.000386611
0.000384881
0.000383242
0.000381669
0.000380178
0.000378774
0.000377457
0.000376232
0.000375108
0.000374099
0.000373209
0.00037244
0.000371767
0.000371076
0.000370333
0.000369551
0.000368754
0.000367961
0.000367191
0.000366466
0.00036581
0.000365239
0.000364764
0.000364372
0.000363923
0.000363384
0.000362778
0.000362136
0.000361476
0.000360819
0.000360187
0.000359609
0.000359106
0.000358696
0.00035838
0.000357971
0.000357441
0.000356818
0.000356133
0.000355402
0.000354639
0.000353861
0.00035309
0.000352342
0.000351626
0.000350942
0.000349946
0.000348583
0.000346813
0.000344552
0.000341669
0.000338064
0.000333956
0.000330246
0.000328105
0.000328042
6.03216e-05
0.000386875
0.00061827
0.000734709
0.000777954
0.000776552
0.000755585
0.000732903
0.000717211
0.000710166
0.000710124
0.000715557
0.000726988
0.000747114
0.000779416
0.000826358
0.000888286
0.00096341
0.0010485
0.00113968
0.00123306
0.00132514
0.00141315
0.00149518
0.00157014
0.00163772
0.00169815
0.00175208
0.00180033
0.00184385
0.00188351
0.00192014
0.0019544
0.00198681
0.00201774
0.00204743
0.002076
0.00210403
0.00213189
0.00215956
0.00218692
0.0022138
0.00223999
0.0022653
0.00228949
0.00231236
0.00233368
0.00235325
0.00237085
0.00238626
0.00239931
0.00240979
0.00241755
0.00242243
0.00242431
0.00242308
0.00241868
0.00241107
0.00240024
0.00238622
0.00236906
0.00234886
0.00232572
0.00229978
0.00227118
0.0022401
0.00220668
0.00217109
0.00213348
0.00209399
0.00205275
0.00200986
0.00196542
0.0019195
0.00187219
0.00182353
0.00177361
0.00172249
0.00167027
0.00161706
0.001563
0.00150826
0.00145305
0.00139758
0.00134214
0.00128704
0.0012326
0.00117921
0.00112719
0.0010768
0.00102857
0.00098262
0.000939181
0.000898422
0.000860395
0.000825159
0.000792653
0.000762811
0.000735399
0.000710342
0.000687228
0.000665839
0.000646135
0.000628098
0.000611674
0.000596761
0.00058323
0.000570954
0.00055983
0.000549759
0.000540648
0.000532418
0.000524993
0.000518288
0.000512208
0.000506675
0.000501631
0.000497029
0.000492831
0.000489005
0.000485526
0.000482366
0.000479496
0.000476896
0.000474551
0.00047242
0.00047045
0.000468616
0.000466903
0.000465302
0.000463806
0.00046241
0.000461114
0.000459916
0.000458807
0.000457782
0.000456831
0.000455921
0.000455024
0.000454132
0.000453244
0.00045237
0.000451518
0.000450701
0.00044993
0.000449204
0.000448524
0.000447888
0.000447256
0.000446603
0.000445924
0.000445223
0.00044451
0.000443797
0.000443098
0.000442429
0.000441792
0.000441188
0.00044062
0.000440033
0.000439399
0.000438712
0.000437976
0.000437198
0.000436386
0.00043555
0.000434697
0.000433827
0.000432925
0.000431935
0.000430729
0.000429236
0.000427372
0.000425037
0.000422119
0.000418565
0.000414613
0.000411038
0.000408664
0.000407621
6.47106e-05
0.000447983
0.000709803
0.0008356
0.000875614
0.000868073
0.000841082
0.000813434
0.00079461
0.000787463
0.000792279
0.000809601
0.000840967
0.000888088
0.000951463
0.0010295
0.0011187
0.00121454
0.00131245
0.00140846
0.00149949
0.00158344
0.00165914
0.00172619
0.00178485
0.00183583
0.00188011
0.00191882
0.00195309
0.00198399
0.00201247
0.00203929
0.00206506
0.00209021
0.00211503
0.00213968
0.0021642
0.00218924
0.0022149
0.00224113
0.00226776
0.00229458
0.00232137
0.00234791
0.00237395
0.00239923
0.00242351
0.00244653
0.00246802
0.00248772
0.00250536
0.0025207
0.00253348
0.00254348
0.00255049
0.00255433
0.00255486
0.00255198
0.0025456
0.00253572
0.00252236
0.00250558
0.00248549
0.00246223
0.00243595
0.00240685
0.00237512
0.00234096
0.00230456
0.0022661
0.00222574
0.00218361
0.00213983
0.00209449
0.00204765
0.00199936
0.00194968
0.00189865
0.00184633
0.00179279
0.00173816
0.00168255
0.00162614
0.00156914
0.00151179
0.00145442
0.00139723
0.00134076
0.00128535
0.0012313
0.00117897
0.00112866
0.00108061
0.00103506
0.000992168
0.000952038
0.00091472
0.000880213
0.000848451
0.000819337
0.000792668
0.000768263
0.000745991
0.000725735
0.000707366
0.000690744
0.000675718
0.000662141
0.000649876
0.000638804
0.00062881
0.000619793
0.00061166
0.000604311
0.000597667
0.000591647
0.000586185
0.00058122
0.000576702
0.000572585
0.000568833
0.000565409
0.000562283
0.00055943
0.000556833
0.000554467
0.0005523
0.000550303
0.000548455
0.000546736
0.000545134
0.000543638
0.00054224
0.000540932
0.000539703
0.000538541
0.000537442
0.000536398
0.000535395
0.00053442
0.000533468
0.000532537
0.000531632
0.000530756
0.000529913
0.000529098
0.000528307
0.00052754
0.000526792
0.000526052
0.000525309
0.000524561
0.000523808
0.000523056
0.000522313
0.000521585
0.000520869
0.000520159
0.000519458
0.000518756
0.000518041
0.0005173
0.000516527
0.00051572
0.000514883
0.000514018
0.000513127
0.000512201
0.000511217
0.000510101
0.000508816
0.00050731
0.0005055
0.000503292
0.000500602
0.000497409
0.000493915
0.00049069
0.000488298
0.000486552
6.78216e-05
0.000494067
0.000777691
0.000911147
0.000953977
0.000946597
0.000918705
0.000890956
0.000874985
0.00087561
0.000894318
0.000931577
0.000987199
0.00105969
0.00114575
0.00124065
0.00133914
0.00143648
0.00152895
0.00161398
0.00169007
0.00175659
0.00181364
0.00186181
0.00190208
0.00193562
0.00196371
0.00198762
0.00200853
0.0020275
0.00204538
0.00206287
0.00208047
0.00209852
0.00211724
0.00213671
0.00215709
0.00217882
0.00220194
0.00222634
0.00225185
0.00227825
0.00230532
0.00233281
0.00236049
0.00238809
0.00241535
0.00244198
0.00246768
0.00249216
0.00251509
0.00253615
0.00255502
0.00257138
0.00258493
0.00259539
0.00260253
0.00260614
0.00260607
0.00260222
0.00259457
0.00258313
0.00256798
0.00254925
0.00252711
0.00250178
0.00247348
0.00244246
0.00240895
0.0023732
0.00233542
0.00229577
0.00225441
0.00221143
0.00216692
0.00212091
0.00207343
0.00202449
0.00197409
0.00192228
0.00186909
0.00181462
0.001759
0.00170235
0.00164495
0.00158714
0.00152917
0.00147139
0.00141418
0.00135791
0.00130294
0.00124962
0.00119828
0.00114921
0.00110263
0.00105875
0.00101768
0.00097949
0.000944187
0.000911729
0.000882012
0.000854906
0.000830271
0.00080796
0.000787811
0.000769656
0.00075332
0.000738632
0.000725431
0.000713569
0.000702908
0.000693326
0.000684712
0.000676963
0.000669984
0.00066369
0.000658003
0.000652855
0.000648187
0.000643946
0.000640088
0.000636572
0.000633363
0.000630432
0.000627757
0.000625314
0.00062308
0.000621029
0.000619137
0.000617384
0.000615754
0.000614231
0.000612807
0.000611469
0.000610204
0.000609004
0.000607861
0.000606773
0.000605733
0.000604731
0.000603761
0.000602819
0.000601903
0.000601015
0.000600153
0.000599314
0.000598491
0.000597685
0.000596897
0.000596125
0.000595361
0.000594602
0.000593843
0.000593087
0.000592338
0.000591597
0.00059086
0.000590121
0.000589381
0.000588642
0.0005879
0.000587145
0.000586371
0.000585572
0.000584747
0.000583896
0.000583018
0.000582099
0.000581117
0.000580008
0.000578762
0.000577342
0.000575683
0.000573712
0.000571366
0.000568635
0.000565661
0.000562813
0.000560445
0.000558442
6.99782e-05
0.000516246
0.00081734
0.000962736
0.00101388
0.00101303
0.00099127
0.000970893
0.000965317
0.000980462
0.00101751
0.00107504
0.00114987
0.00123734
0.00133187
0.00142787
0.00152062
0.00160663
0.00168371
0.00175073
0.00180742
0.00185413
0.00189166
0.00192112
0.00194382
0.00196112
0.00197438
0.00198489
0.00199377
0.00200198
0.00201031
0.00201934
0.0020295
0.00204106
0.00205416
0.00206884
0.00208529
0.00210378
0.00212431
0.00214673
0.00217087
0.00219652
0.00222347
0.0022515
0.00228039
0.00230988
0.00233973
0.00236966
0.00239939
0.00242859
0.00245691
0.00248398
0.00250942
0.00253281
0.00255376
0.00257188
0.0025868
0.00259821
0.00260584
0.00260949
0.00260902
0.0026044
0.00259563
0.00258282
0.00256613
0.00254578
0.00252204
0.00249521
0.00246559
0.00243348
0.00239916
0.00236289
0.00232486
0.00228522
0.00224407
0.00220144
0.00215735
0.00211176
0.00206465
0.00201598
0.0019657
0.00191387
0.00186063
0.00180605
0.00175029
0.00169361
0.00163626
0.00157855
0.00152084
0.00146351
0.00140695
0.00135156
0.00129773
0.00124584
0.0011962
0.00114909
0.00110473
0.00106325
0.00102474
0.000989206
0.000956612
0.000926869
0.000899859
0.000875437
0.000853437
0.00083368
0.000815979
0.000800145
0.000785995
0.000773357
0.000762068
0.000751984
0.00074297
0.000734909
0.000727692
0.000721223
0.000715413
0.000710187
0.000705476
0.00070122
0.000697366
0.00069387
0.000690691
0.000687795
0.000685154
0.000682745
0.000680544
0.000678528
0.000676674
0.000674961
0.000673371
0.000671891
0.000670506
0.000669204
0.000667976
0.000666809
0.000665697
0.000664636
0.000663623
0.000662651
0.000661714
0.000660806
0.000659926
0.000659072
0.000658242
0.000657432
0.000656636
0.000655854
0.000655087
0.000654336
0.000653597
0.000652866
0.00065214
0.000651418
0.000650702
0.000649991
0.000649283
0.000648571
0.000647855
0.000647138
0.000646421
0.000645697
0.000644961
0.000644207
0.000643433
0.000642636
0.000641813
0.000640955
0.000640035
0.000639011
0.000637875
0.000636603
0.000635148
0.000633456
0.00063148
0.00062921
0.000626731
0.000624264
0.00062202
0.000620019
7.18004e-05
0.000521336
0.000836292
0.000994543
0.00105781
0.00106918
0.00106036
0.0010542
0.00106452
0.0010969
0.001151
0.00122303
0.00130741
0.00139794
0.00148879
0.00157523
0.00165388
0.00172272
0.00178083
0.00182808
0.00186496
0.0018924
0.00191157
0.00192385
0.00193068
0.0019335
0.00193366
0.00193239
0.00193073
0.00192956
0.00192956
0.00193124
0.00193493
0.00194086
0.00194909
0.00195962
0.00197258
0.00198809
0.00200609
0.00202642
0.00204891
0.00207336
0.00209961
0.00212745
0.00215671
0.00218721
0.00221875
0.00225109
0.00228399
0.00231716
0.00235026
0.0023829
0.00241467
0.00244508
0.00247364
0.00249986
0.00252323
0.00254328
0.00255961
0.00257187
0.00257979
0.0025832
0.00258203
0.0025763
0.00256615
0.00255178
0.00253348
0.00251158
0.00248645
0.00245849
0.00242807
0.00239554
0.00236119
0.00232525
0.00228787
0.00224913
0.00220904
0.00216753
0.00212452
0.00207997
0.00203381
0.00198597
0.00193647
0.00188534
0.00183264
0.00177854
0.00172324
0.00166699
0.0016101
0.00155294
0.0014959
0.00143942
0.00138392
0.00132986
0.00127765
0.00122766
0.00118022
0.00113558
0.00109391
0.0010553
0.00101977
0.000987282
0.000957743
0.000931022
0.00090696
0.000885381
0.000866093
0.000848903
0.000833615
0.000820037
0.000807989
0.000797301
0.000787819
0.000779403
0.000771926
0.000765277
0.000759354
0.000754069
0.000749343
0.000745108
0.000741302
0.000737874
0.000734777
0.000731972
0.000729428
0.000727115
0.000725009
0.000723086
0.000721324
0.000719703
0.000718205
0.000716814
0.000715517
0.000714301
0.000713156
0.000712071
0.000711039
0.000710055
0.000709116
0.000708216
0.000707351
0.000706516
0.000705708
0.000704924
0.000704161
0.000703417
0.000702687
0.00070197
0.000701265
0.000700573
0.000699894
0.000699224
0.000698561
0.000697903
0.00069725
0.000696601
0.000695954
0.000695305
0.000694652
0.000693996
0.00069334
0.00069268
0.000692012
0.000691332
0.000690636
0.000689922
0.000689187
0.000688421
0.000687601
0.000686701
0.000685712
0.000684618
0.000683386
0.000681978
0.000680357
0.000678513
0.000676487
0.000674406
0.000672395
0.00067053
7.28321e-05
0.000515587
0.000839859
0.001011
0.00108906
0.00111695
0.00112599
0.00113827
0.00116649
0.00121474
0.00128093
0.00135965
0.00144446
0.00152929
0.00160926
0.00168096
0.00174234
0.00179251
0.0018314
0.00185955
0.00187791
0.00188774
0.00189045
0.00188755
0.00188056
0.00187092
0.00185993
0.00184874
0.00183832
0.00182943
0.00182265
0.00181839
0.0018169
0.00181833
0.00182269
0.00182993
0.00184003
0.00185293
0.00186849
0.00188656
0.00190696
0.00192955
0.00195417
0.00198072
0.00200908
0.00203916
0.00207085
0.00210401
0.00213849
0.00217408
0.0022105
0.00224741
0.0022844
0.00232096
0.00235655
0.00239055
0.00242234
0.0024513
0.00247684
0.00249842
0.0025156
0.00252806
0.00253556
0.00253801
0.00253546
0.00252804
0.00251602
0.00249975
0.00247966
0.00245623
0.00242993
0.00240124
0.00237058
0.00233831
0.00230468
0.00226984
0.00223385
0.00219669
0.00215829
0.00211853
0.00207725
0.0020343
0.00198958
0.00194303
0.00189462
0.00184442
0.00179252
0.00173911
0.00168445
0.00162883
0.00157263
0.00151625
0.00146017
0.00140484
0.00135077
0.00129841
0.00124822
0.00120056
0.00115573
0.00111394
0.00107531
0.00103987
0.00100757
0.000978293
0.000951901
0.000928216
0.000907051
0.000888209
0.000871491
0.000856697
0.000843635
0.000832118
0.000821973
0.000813039
0.00080517
0.000798235
0.000792116
0.000786708
0.000781921
0.000777673
0.000773894
0.000770522
0.000767505
0.000764797
0.00076236
0.00076016
0.000758169
0.000756362
0.000754716
0.000753211
0.000751827
0.000750549
0.000749364
0.000748258
0.000747221
0.000746242
0.000745315
0.000744434
0.000743594
0.000742791
0.000742021
0.000741279
0.000740563
0.00073987
0.000739196
0.000738539
0.000737895
0.000737263
0.000736641
0.000736031
0.000735431
0.000734841
0.000734257
0.00073368
0.000733107
0.000732538
0.00073197
0.000731402
0.00073083
0.000730256
0.000729681
0.000729103
0.00072852
0.000727929
0.000727327
0.000726711
0.000726078
0.000725421
0.000724718
0.000723956
0.000723126
0.000722216
0.000721205
0.000720064
0.000718768
0.000717302
0.000715685
0.000713986
0.000712279
0.000710661
7.3301e-05
0.000502738
0.000832673
0.00101638
0.00111078
0.00115762
0.00118688
0.00121872
0.0012637
0.00132407
0.00139654
0.00147535
0.00155447
0.00162887
0.00169491
0.0017504
0.00179431
0.00182651
0.00184753
0.00185833
0.00186021
0.00185464
0.00184322
0.00182755
0.00180917
0.00178949
0.00176978
0.00175108
0.00173422
0.00171984
0.00170838
0.00170013
0.00169523
0.00169371
0.00169552
0.00170055
0.00170856
0.00171928
0.00173248
0.001748
0.00176567
0.00178539
0.00180711
0.00183079
0.00185643
0.00188405
0.00191368
0.00194533
0.00197898
0.00201456
0.00205192
0.00209083
0.00213094
0.00217179
0.00221281
0.00225334
0.00229264
0.00232995
0.00236448
0.0023955
0.00242235
0.00244448
0.00246148
0.00247306
0.0024791
0.00247964
0.00247487
0.00246508
0.00245072
0.00243231
0.00241043
0.00238567
0.00235862
0.0023298
0.00229963
0.00226839
0.00223634
0.00220348
0.00216973
0.00213492
0.00209883
0.00206124
0.00202194
0.00198076
0.00193759
0.00189235
0.00184505
0.00179578
0.0017447
0.00169203
0.00163807
0.0015832
0.00152785
0.00147248
0.00141761
0.00136376
0.00131147
0.00126122
0.00121345
0.00116852
0.00112668
0.00108807
0.00105273
0.00102062
0.000991603
0.000965522
0.000942182
0.000921384
0.000902924
0.000886602
0.000872218
0.00085958
0.0008485
0.000838804
0.000830326
0.000822917
0.000816441
0.000810775
0.000805812
0.000801456
0.000797625
0.000794246
0.000791257
0.000788604
0.000786242
0.000784131
0.000782238
0.000780535
0.000778997
0.000777601
0.000776328
0.000775162
0.000774088
0.000773093
0.000772166
0.000771297
0.000770479
0.000769705
0.000768969
0.000768269
0.000767599
0.000766956
0.000766337
0.000765738
0.000765158
0.000764593
0.00076404
0.000763498
0.000762965
0.000762442
0.000761928
0.000761422
0.000760923
0.00076043
0.000759941
0.000759455
0.000758972
0.000758489
0.000758003
0.000757516
0.000757027
0.000756537
0.000756044
0.000755545
0.000755039
0.000754523
0.000753994
0.000753446
0.000752863
0.000752238
0.000751562
0.000750827
0.000750018
0.000749117
0.000748104
0.000746966
0.000745709
0.000744368
0.000742993
0.000741676
7.33834e-05
0.000485593
0.000818403
0.00101403
0.00112513
0.00119151
0.00124096
0.001291
0.00134977