/*--------------------------------*- C++ -*----------------------------------*\
  =========                 |
  \\      /  F ield         | OpenFOAM: The Open Source CFD Toolbox
   \\    /   O peration     | Website:  https://openfoam.org
    \\  /    A nd           | Version:  9
     \\/     M anipulation  |
\*---------------------------------------------------------------------------*/
FoamFile
{
    format      ascii;
    class       volScalarField;
    location    "0.02";
    object      p;
}
// * * * * * * * * * * * * * * * * * * * * * * * * * * * * * * * * * * * * * //

dimensions      [0 2 -2 0 0 0 0];

internalField   nonuniform List<scalar> 
12225
(
0.184133
-0.168652
-0.244831
-0.232886
-0.209392
-0.170804
-0.115019
-0.0460235
0.0326068
0.118272
0.208303
0.299269
0.386945
0.46669
0.5358
0.588776
0.624219
0.562933
-0.32548
-0.252258
-0.242398
-0.227108
-0.204229
-0.167344
-0.113305
-0.0452568
0.0334803
0.120291
0.212305
0.305698
0.395694
0.476893
0.546114
0.595931
0.632069
0.58637
-0.277215
-0.227692
-0.232968
-0.221107
-0.198802
-0.16382
-0.112162
-0.0457387
0.0325764
0.120195
0.214126
0.310367
0.403908
0.48887
0.561666
0.614208
0.66613
0.638145
-0.248352
-0.224076
-0.230397
-0.217854
-0.195708
-0.162313
-0.112968
-0.0484924
0.0287772
0.116412
0.211511
0.310255
0.407899
0.498701
0.579245
0.643199
0.719546
0.712233
-0.252018
-0.233848
-0.232718
-0.217952
-0.195743
-0.16346
-0.11607
-0.0535455
0.0222988
0.109285
0.204785
0.305438
0.407155
0.504897
0.595894
0.676313
0.777839
0.800647
-0.262068
-0.245091
-0.237669
-0.221216
-0.19886
-0.167311
-0.121539
-0.0608775
0.0133266
0.0991908
0.194455
0.296368
0.401718
0.506525
0.60887
0.707183
0.831011
0.889722
-0.271159
-0.25622
-0.245156
-0.227594
-0.205026
-0.173952
-0.129532
-0.0706464
0.00176541
0.0861308
0.180593
0.283048
0.391218
0.50231
0.615259
0.730152
0.871646
0.964604
-0.280755
-0.268531
-0.255461
-0.237123
-0.214317
-0.18355
-0.140284
-0.0831168
-0.0126359
0.0698925
0.163007
0.265209
0.375061
0.490871
0.612301
0.740443
0.894047
1.01434
-0.292347
-0.282691
-0.268639
-0.249847
-0.226859
-0.196319
-0.15409
-0.0986283
-0.0302336
0.0501193
0.14133
0.242404
0.352551
0.470932
0.597705
0.734388
0.894231
1.03274
-0.306475
-0.298945
-0.284704
-0.265829
-0.242805
-0.212521
-0.17131
-0.117615
-0.0515098
0.0262951
0.115006
0.213996
0.322889
0.441364
0.569774
0.709568
0.869582
1.01694
-0.323404
-0.317554
-0.303723
-0.285148
-0.262316
-0.232436
-0.192345
-0.140577
-0.0770401
-0.00221733
0.083337
0.179225
0.285252
0.401283
0.527553
0.664995
0.819168
0.966738
-0.341792
-0.337112
-0.324035
-0.306066
-0.283685
-0.25442
-0.215576
-0.165833
-0.105002
-0.0333966
0.0485881
0.140653
0.242607
0.354249
0.475497
0.606514
0.750555
0.891
-0.362743
-0.358869
-0.346841
-0.329775
-0.308137
-0.279785
-0.242472
-0.195057
-0.137297
-0.0693642
0.00845532
0.0958854
0.192637
0.298309
0.412409
0.53442
0.665289
0.794317
-0.390322
-0.387084
-0.376466
-0.360787
-0.340436
-0.313637
-0.278604
-0.234416
-0.180804
-0.117813
-0.0456407
0.0354076
0.124876
0.222076
0.326055
0.435571
0.549721
0.662223
-0.426597
-0.423891
-0.415015
-0.401373
-0.383162
-0.358958
-0.327417
-0.287851
-0.239992
-0.183776
-0.119324
-0.0469863
0.0326324
0.118624
0.20971
0.30413
0.399785
0.492244
-0.474115
-0.471926
-0.465166
-0.454451
-0.439662
-0.419661
-0.393491
-0.360674
-0.320953
-0.274174
-0.220385
-0.15998
-0.0935797
-0.0221075
0.0531287
0.130224
0.206464
0.277467
-0.535769
-0.534207
-0.5301
-0.523535
-0.514
-0.500538
-0.482502
-0.459573
-0.431494
-0.398029
-0.359129
-0.315364
-0.267256
-0.215358
-0.160762
-0.10525
-0.0516858
-0.00465475
-0.614248
-0.613603
-0.612994
-0.612242
-0.610419
-0.606669
-0.60062
-0.592092
-0.580826
-0.566551
-0.549096
-0.52849
-0.507552
-0.484419
-0.460292
-0.436755
-0.416525
-0.403593
-0.710396
-0.711243
-0.715448
-0.722667
-0.731556
-0.741442
-0.752311
-0.764244
-0.777241
-0.79127
-0.80656
-0.823605
-0.841483
-0.863287
-0.889875
-0.922676
-0.964178
-1.01806
-0.795324
-0.797615
-0.806656
-0.821743
-0.841034
-0.86398
-0.890809
-0.921815
-0.957125
-0.996821
-1.04121
-1.09102
-1.14736
-1.21203
-1.28688
-1.37409
-1.47673
-1.59847
-0.854695
-0.858073
-0.870949
-0.891981
-0.918839
-0.951194
-0.989637
-1.03452
-1.08596
-1.144
-1.20899
-1.28175
-1.36366
-1.4565
-1.56233
-1.68354
-1.82322
-1.98484
-0.898349
-0.902739
-0.919067
-0.944943
-0.977621
-1.01725
-1.06463
-1.12016
-1.18372
-1.25515
-1.33468
-1.42307
-1.52162
-1.63204
-1.75627
-1.89651
-2.05552
-2.23629
-0.928963
-0.934196
-0.953687
-0.983418
-1.02038
-1.06544
-1.11972
-1.18332
-1.2558
-1.33678
-1.42631
-1.52504
-1.63416
-1.75518
-1.88979
-2.0398
-2.2074
-2.3949
-0.949254
-0.954957
-0.97736
-1.01011
-1.05017
-1.09942
-1.15905
-1.22876
-1.3078
-1.39556
-1.492
-1.59767
-1.71364
-1.84123
-1.98179
-2.13671
-2.30754
-2.49588
-0.961278
-0.967048
-0.992274
-1.02739
-1.0698
-1.12252
-1.18646
-1.26082
-1.34462
-1.43723
-1.53858
-1.64922
-1.7701
-1.9023
-2.04691
-2.20488
-2.37719
-2.56479
-0.965701
-0.971046
-0.99999
-1.03732
-1.08181
-1.13772
-1.20523
-1.28306
-1.37024
-1.46629
-1.57128
-1.68579
-1.81066
-1.94677
-2.09486
-2.25556
-2.42937
-2.61674
-0.966136
-0.965865
-1.00137
-1.04182
-1.08866
-1.14768
-1.21813
-1.29836
-1.38773
-1.48613
-1.59389
-1.71164
-1.8401
-1.97988
-2.13146
-2.29514
-2.47114
-2.65953
-0.987492
-0.953033
-0.99769
-1.04307
-1.09302
-1.15496
-1.2274
-1.30889
-1.39937
-1.49926
-1.60912
-1.72964
-1.86136
-2.00465
-2.15972
-2.3267
-2.50561
-2.69633
-1.07288
-1.00218
-1.00632
-1.04441
-1.0968
-1.16119
-1.23443
-1.31598
-1.40667
-1.50739
-1.61884
-1.74161
-1.87605
-2.02235
-2.18061
-2.35086
-2.53307
-2.72705
-0.569087
-0.882091
-0.996627
-1.04238
-1.09767
-1.16461
-1.23856
-1.31997
-1.41069
-1.51201
-1.62471
-1.74924
-1.88579
-2.03447
-2.19535
-2.36848
-2.5538
-2.75108
1.75424
1.78583
1.57924
1.23167
0.881558
0.61085
0.459227
0.418259
0.463888
0.557156
0.660266
0.743219
0.788911
0.794805
0.766845
0.711047
0.628988
0.517683
0.361149
0.137993
-0.174348
-0.591504
-1.11816
-1.74736
-2.4623
-3.23942
-4.05176
-4.87233
-5.67648
-6.44336
-7.15645
-7.80359
-8.37686
-8.87244
-9.29003
-9.63091
-9.89297
-10.0713
-10.159
-10.1646
-10.0963
-9.96142
-9.76621
-9.51648
-9.21795
-8.87632
-8.49733
-8.08671
-7.65014
-7.19324
-6.72145
-6.24001
-5.7539
-5.26779
-4.78601
-4.31247
-3.85072
-3.40384
-2.97451
-2.56495
-2.17696
-1.81193
-1.47086
-1.15436
-0.862723
-0.595903
-0.353597
-0.135254
0.0598855
0.232751
0.384412
0.516045
0.628902
0.724285
0.803523
0.867946
0.918873
0.957589
0.985339
1.00331
1.01264
1.01438
1.00957
0.999094
0.983774
0.96456
0.942375
0.919888
0.891947
0.860916
0.831805
0.799716
0.766914
0.734785
0.702556
0.670945
0.641452
0.613228
0.585474
0.55843
0.532505
0.507852
0.484314
0.461987
0.440889
0.421087
0.402589
0.385398
0.369507
0.354894
0.341507
0.329276
0.318148
0.308086
0.299048
0.290982
0.283834
0.277546
0.272062
0.267332
0.263316
0.259967
0.257201
0.254905
0.253012
0.251506
0.250365
0.249553
0.249095
0.248905
0.248953
0.249228
0.249733
0.250462
0.251356
0.252306
0.253257
0.254236
0.255279
0.25639
0.257558
0.258773
0.260035
0.261363
0.262784
0.264274
0.265734
0.267098
0.268402
0.269708
0.271036
0.272384
0.273747
0.275128
0.276546
0.278043
0.27962
0.28118
0.282632
0.284004
0.285373
0.286771
0.288194
0.289634
0.291087
0.292564
0.294107
0.295731
0.297337
0.298782
0.300078
0.30125
0.302271
0.303047
0.303451
0.303285
0.302334
0.301149
0.302099
0.306587
1.03918
1.06222
0.775747
0.415933
0.111728
-0.101445
-0.207326
-0.169299
0.0122409
0.290733
0.591501
0.848727
1.02841
1.12505
1.14399
1.09319
0.985828
0.83725
0.63775
0.354841
-0.0413781
-0.565892
-1.21551
-1.97121
-2.80362
-3.67927
-4.56586
-5.43522
-6.26474
-7.03756
-7.74188
-8.36992
-8.91688
-9.38
-9.75792
-10.0504
-10.2598
-10.3908
-10.4576
-10.4592
-10.3954
-10.2685
-10.0825
-9.84182
-9.55155
-9.21701
-8.84369
-8.4372
-8.00315
-7.5471
-7.0745
-6.59063
-6.1005
-5.60886
-5.12011
-4.6383
-4.16708
-3.70966
-3.26887
-2.84706
-2.4462
-2.06782
-1.71306
-1.38267
-1.07708
-0.796371
-0.540346
-0.308556
-0.100331
0.0851865
0.249003
0.392245
0.516127
0.621924
0.710946
0.784515
0.843948
0.890535
0.92553
0.950138
0.965507
0.972724
0.972825
0.966738
0.955015
0.937829
0.916057
0.891289
0.867607
0.841597
0.812615
0.785283
0.755831
0.725797
0.695884
0.665817
0.635842
0.608017
0.581526
0.555454
0.530326
0.506041
0.482868
0.460893
0.439935
0.420316
0.401926
0.384769
0.368884
0.35431
0.341039
0.328971
0.317969
0.307963
0.29894
0.290879
0.28373
0.277429
0.271904
0.267099
0.262995
0.259608
0.256896
0.254709
0.252888
0.251387
0.250241
0.249468
0.248939
0.248703
0.248711
0.248922
0.249337
0.249994
0.250901
0.251948
0.252984
0.253982
0.255011
0.256108
0.257263
0.258457
0.259677
0.260933
0.262285
0.263777
0.265331
0.266791
0.268124
0.269422
0.270744
0.27209
0.273446
0.274802
0.276166
0.277596
0.279162
0.280813
0.282375
0.283788
0.285159
0.286565
0.288002
0.289458
0.290916
0.292375
0.293883
0.295516
0.297244
0.298886
0.30031
0.301594
0.302771
0.303772
0.304465
0.304507
0.303381
0.301327
0.300403
0.300326
0.627487
0.463016
0.209797
-0.0535474
-0.260806
-0.381793
-0.402631
-0.314438
-0.122988
0.141941
0.431667
0.693789
0.88958
1.0016
1.02357
0.946626
0.760796
0.463325
0.0586611
-0.444724
-1.03554
-1.6996
-2.42023
-3.17942
-3.95935
-4.74353
-5.51739
-6.26837
-6.98571
-7.66015
-8.28382
-8.85023
-9.35404
-9.79086
-10.1568
-10.4487
-10.666
-10.809
-10.8814
-10.8853
-10.8232
-10.6981
-10.5136
-10.2742
-9.98448
-9.64956
-9.27479
-8.86565
-8.42769
-7.96646
-7.48741
-6.99583
-6.49679
-5.99511
-5.49527
-5.0014
-4.51725
-4.04617
-3.59109
-3.1545
-2.73848
-2.34471
-1.97445
-1.62857
-1.30762
-1.0118
-0.740989
-0.49484
-0.272751
-0.0739268
0.10259
0.25789
0.393162
0.509667
0.608709
0.691613
0.759703
0.814286
0.856635
0.88798
0.909495
0.922294
0.927428
0.925869
0.9184
0.905617
0.88846
0.868464
0.847021
0.823031
0.797493
0.770689
0.74276
0.714149
0.685203
0.656499
0.628853
0.601584
0.574624
0.548647
0.523549
0.499397
0.476422
0.454737
0.434546
0.415427
0.397464
0.380714
0.365226
0.351016
0.338055
0.326244
0.315458
0.305644
0.296807
0.288931
0.281962
0.275838
0.270494
0.265876
0.261957
0.258726
0.256129
0.254023
0.252245
0.250763
0.249632
0.248854
0.248407
0.248226
0.248282
0.248547
0.249022
0.249734
0.250675
0.251731
0.252748
0.253711
0.254718
0.255808
0.256967
0.258173
0.259415
0.260708
0.262099
0.263618
0.26518
0.266615
0.267903
0.269173
0.270485
0.271829
0.273191
0.274562
0.275955
0.277421
0.279017
0.280685
0.282226
0.283593
0.284938
0.286336
0.287774
0.289234
0.290706
0.29219
0.293733
0.295405
0.29717
0.298797
0.300174
0.301433
0.302605
0.303592
0.304248
0.30427
0.303271
0.301475
0.301169
0.3009
0.951099
0.609155
0.363537
0.145458
-0.0319714
-0.145456
-0.181428
-0.137009
-0.0257499
0.125305
0.28168
0.408334
0.47495
0.457924
0.340078
0.112152
-0.224616
-0.658905
-1.17337
-1.75001
-2.37362
-3.0323
-3.71648
-4.41769
-5.12759
-5.83752
-6.53844
-7.22114
-7.8765
-8.4958
-9.07096
-9.59482
-10.0613
-10.4653
-10.803
-11.0717
-11.2701
-11.3984
-11.4575
-11.4485
-11.3736
-11.2356
-11.038
-10.7851
-10.4813
-10.1318
-9.74192
-9.3171
-8.86295
-8.3851
-7.88904
-7.38017
-6.86364
-6.34434
-5.82685
-5.31537
-4.81374
-4.3254
-3.85333
-3.40013
-2.96795
-2.55852
-2.17317
-1.81284
-1.4781
-1.16919
-0.886048
-0.628317
-0.395409
-0.186528
-0.000702103
0.163179
0.306332
0.430052
0.53568
0.624584
0.698129
0.757665
0.804508
0.839929
0.865142
0.881296
0.889474
0.890681
0.885837
0.875794
0.861479
0.84395
0.823966
0.801624
0.777577
0.752013
0.725428
0.69817
0.670623
0.643181
0.616268
0.589732
0.563622
0.538277
0.513735
0.490211
0.467901
0.446864
0.427118
0.408522
0.391094
0.374885
0.359909
0.346169
0.333619
0.322181
0.311749
0.302273
0.293754
0.286173
0.279479
0.273614
0.268519
0.264144
0.260451
0.257405
0.254945
0.252948
0.25128
0.249906
0.248866
0.248166
0.247779
0.24766
0.247779
0.248113
0.248657
0.249416
0.250368
0.251419
0.252437
0.253407
0.254422
0.25552
0.25669
0.257913
0.259184
0.260513
0.261929
0.263444
0.264984
0.266402
0.26768
0.268944
0.270254
0.271599
0.272968
0.274357
0.27578
0.277273
0.278869
0.280515
0.282033
0.283383
0.284718
0.28611
0.287544
0.289004
0.290485
0.291991
0.293558
0.29523
0.296971
0.298556
0.29989
0.301107
0.30223
0.303153
0.303734
0.303745
0.302994
0.301748
0.302208
0.302391
2.05198
1.65806
1.30015
1.01631
0.792812
0.62004
0.497182
0.417201
0.366265
0.32483
0.269325
0.175171
0.020471
-0.210344
-0.523667
-0.916159
-1.37744
-1.89461
-2.4558
-3.05161
-3.67473
-4.31904
-4.97874
-5.64789
-6.32012
-6.98856
-7.64591
-8.28459
-8.89685
-9.47504
-10.0118
-10.5003
-10.9344
-11.3087
-11.619
-11.8623
-12.0366
-12.1414
-12.1767
-12.1437
-12.0444
-11.8815
-11.6585
-11.3797
-11.0497
-10.6737
-10.257
-9.80537
-9.32449
-8.8201
-8.29785
-7.76324
-7.22154
-6.67775
-6.13652
-5.60215
-5.07855
-4.56919
-4.07713
-3.605
-3.15498
-2.72883
-2.3279
-1.95313
-1.60509
-1.28402
-0.989816
-0.722097
-0.48023
-0.263364
-0.0704666
0.0996413
0.24825
0.376729
0.486497
0.578996
0.655664
0.71792
0.767141
0.804655
0.831727
0.849551
0.859252
0.861874
0.85839
0.84972
0.836766
0.82039
0.801287
0.779891
0.756694
0.73208
0.706465
0.680205
0.653666
0.627173
0.600996
0.575241
0.550018
0.525496
0.50178
0.479068
0.457517
0.437184
0.418066
0.40012
0.383345
0.367761
0.353376
0.340175
0.32813
0.31716
0.307184
0.298152
0.290047
0.282844
0.276497
0.270953
0.266158
0.262059
0.258612
0.255771
0.253472
0.251617
0.250101
0.248882
0.247979
0.247392
0.247096
0.247059
0.247254
0.247658
0.24826
0.24905
0.250003
0.251046
0.252082
0.253092
0.254141
0.255262
0.256448
0.257689
0.258981
0.26033
0.26175
0.263239
0.264743
0.266154
0.267453
0.268736
0.270053
0.271403
0.272778
0.274179
0.275617
0.277114
0.278686
0.28029
0.281791
0.283156
0.284502
0.285894
0.287325
0.288784
0.290267
0.291781
0.293348
0.29499
0.296669
0.298212
0.299525
0.300713
0.30179
0.302666
0.30322
0.303306
0.302891
0.30225
0.303355
0.303933
3.62287
3.10438
2.60251
2.22193
1.91658
1.6464
1.39132
1.13714
0.872051
0.585959
0.269318
-0.0865693
-0.487688
-0.93569
-1.42788
-1.95871
-2.52164
-3.11053
-3.72023
-4.34649
-4.98566
-5.63426
-6.2887
-6.94496
-7.59848
-8.244
-8.87558
-9.48671
-10.0705
-10.6198
-11.1276
-11.5872
-11.9926
-12.3382
-12.6197
-12.8338
-12.9786
-13.0528
-13.0566
-12.9909
-12.8578
-12.6601
-12.4014
-12.0862
-11.7193
-11.3061
-10.8522
-10.3637
-9.84631
-9.30611
-8.74893
-8.18043
-7.60602
-7.03081
-6.45957
-5.89666
-5.34604
-4.81125
-4.29537
-3.80103
-3.33043
-2.88532
-2.46703
-2.07649
-1.71423
-1.38044
-1.07495
-0.79732
-0.546835
-0.322554
-0.123345
0.0520738
0.205102
0.337219
0.449952
0.544847
0.623442
0.687244
0.737712
0.776246
0.80417
0.822734
0.833109
0.836378
0.833544
0.825548
0.813268
0.797512
0.778957
0.758138
0.735542
0.711593
0.686689
0.66119
0.635432
0.609713
0.584275
0.559279
0.534868
0.511177
0.488324
0.466462
0.445713
0.426136
0.407745
0.390523
0.374465
0.359575
0.345849
0.333269
0.321795
0.311367
0.301916
0.293393
0.28577
0.279011
0.273072
0.267902
0.263449
0.25966
0.256489
0.253884
0.251782
0.250103
0.248766
0.247729
0.24699
0.246541
0.246363
0.246426
0.246708
0.247186
0.247845
0.248668
0.249628
0.250673
0.251733
0.25279
0.253882
0.255032
0.256241
0.257501
0.258809
0.260168
0.261582
0.263043
0.264513
0.265919
0.267244
0.26855
0.26988
0.271237
0.272618
0.274027
0.275469
0.276959
0.2785
0.280059
0.281545
0.28293
0.284294
0.28569
0.287119
0.288575
0.290056
0.291566
0.293118
0.294719
0.296332
0.297827
0.299128
0.300299
0.301349
0.302206
0.302786
0.30301
0.302946
0.302854
0.304422
0.305283
5.08358
4.47209
3.83696
3.35164
2.94608
2.55136
2.13639
1.68549
1.19287
0.660758
0.0953812
-0.496272
-1.10791
-1.7344
-2.3719
-3.01775
-3.67011
-4.32768
-4.9894
-5.65428
-6.3212
-6.9887
-7.65473
-8.31649
-8.97033
-9.61171
-10.2353
-10.835
-11.4043
-11.9365
-12.4247
-12.8624
-13.2436
-13.5627
-13.8154
-13.9984
-14.1098
-14.1484
-14.1141
-14.0082
-13.8328
-13.591
-13.2868
-12.9249
-12.5107
-12.0498
-11.5484
-11.0127
-10.4489
-9.86341
-9.26226
-8.65135
-8.03629
-7.42232
-6.81431
-6.21672
-5.63354
-5.06833
-4.52419
-4.00374
-3.50915
-3.04215
-2.60402
-2.19564
-1.81748
-1.46964
-1.15188
-0.863659
-0.604151
-0.372296
-0.166837
0.013646
0.170691
0.305918
0.420994
0.517598
0.59739
0.661992
0.712962
0.751789
0.779874
0.798529
0.808978
0.812345
0.809666
0.801889
0.789884
0.774436
0.756217
0.735791
0.713653
0.690237
0.665935
0.641099
0.616046
0.591052
0.566349
0.542115
0.518501
0.49564
0.473648
0.452646
0.432732
0.413961
0.396353
0.379905
0.36461
0.350462
0.337449
0.325544
0.314709
0.304888
0.296024
0.288066
0.280976
0.274714
0.269232
0.264482
0.260411
0.25697
0.254107
0.251771
0.249903
0.248435
0.247303
0.246466
0.245908
0.245617
0.245573
0.245752
0.246131
0.24669
0.247411
0.248276
0.249258
0.250317
0.251406
0.252508
0.253643
0.254826
0.256059
0.257338
0.25866
0.260025
0.261432
0.262872
0.264316
0.265716
0.267061
0.268389
0.269732
0.271097
0.272483
0.273894
0.275336
0.276813
0.278326
0.279848
0.281318
0.282717
0.284096
0.285497
0.286925
0.288376
0.28985
0.291349
0.292879
0.294437
0.29599
0.297441
0.298731
0.299894
0.300935
0.301801
0.302441
0.302827
0.303081
0.303432
0.305286
0.306359
6.05268
5.37599
4.64129
4.0622
3.55213
3.02899
2.45882
1.82966
1.14436
0.416388
-0.337143
-1.10117
-1.86512
-2.62294
-3.372
-4.11184
-4.84314
-5.5671
-6.28487
-6.99728
-7.70454
-8.40608
-9.10041
-9.78511
-10.4568
-11.111
-11.7427
-12.346
-12.9143
-13.441
-13.9193
-14.3427
-14.705
-15.0009
-15.2258
-15.3768
-15.4519
-15.4502
-15.3719
-15.2183
-14.992
-14.6967
-14.3368
-13.9176
-13.445
-12.9252
-12.365
-11.7711
-11.1502
-10.509
-9.85401
-9.19139
-8.52695
-7.86613
-7.21391
-6.57481
-5.95287
-5.35165
-4.77422
-4.22318
-3.70064
-3.20827
-2.74727
-2.31844
-1.92216
-1.55843
-1.2269
-0.926904
-0.657478
-0.417423
-0.205324
-0.0196019
0.14145
0.279622
0.396749
0.494669
0.575194
0.640082
0.691017
0.729596
0.757308
0.775549
0.785595
0.788612
0.785676
0.777752
0.765713
0.750332
0.732281
0.712131
0.690376
0.667448
0.643728
0.619551
0.595216
0.570981
0.547063
0.523644
0.500874
0.478882
0.457779
0.43767
0.418633
0.400719
0.383949
0.368325
0.35384
0.340482
0.328231
0.317057
0.30692
0.297767
0.289544
0.282202
0.275693
0.269973
0.264994
0.260707
0.257059
0.254
0.251481
0.249449
0.247849
0.246625
0.245722
0.245101
0.24474
0.244621
0.244726
0.245032
0.245519
0.246167
0.246959
0.247875
0.248892
0.249978
0.251101
0.252246
0.253422
0.254639
0.255897
0.257194
0.258528
0.259898
0.2613
0.262724
0.26415
0.265547
0.266906
0.268251
0.269606
0.270977
0.272367
0.273778
0.275215
0.276679
0.278167
0.279659
0.281115
0.282521
0.283911
0.285316
0.28674
0.288184
0.289649
0.291133
0.292639
0.294157
0.295658
0.297073
0.298353
0.299515
0.30056
0.301454
0.302171
0.302717
0.303238
0.303925
0.305928
0.307156
6.32268
5.60519
4.82078
4.17595
3.58032
2.95292
2.26351
1.50622
0.690801
-0.163435
-1.03566
-1.90921
-2.77341
-3.62279
-4.45556
-5.27214
-6.0741
-6.86333
-7.64154
-8.40987
-9.16867
-9.91739
-10.6545
-11.3774
-12.0825
-12.7653
-13.4204
-14.0415
-14.6221
-15.1551
-15.6335
-16.0506
-16.4002
-16.6766
-16.8754
-16.9939
-17.0303
-16.9839
-16.8553
-16.6464
-16.3603
-16.0014
-15.5748
-15.0867
-14.5435
-13.9526
-13.3212
-12.6568
-11.9667
-11.2583
-10.5385
-9.81375
-9.09022
-8.37353
-7.6688
-6.98061
-6.31303
-5.66959
-5.0533
-4.4667
-3.91179
-3.39015
-2.90286
-2.45061
-2.03364
-1.65183
-1.30468
-0.991379
-0.710813
-0.461607
-0.242171
-0.0507383
0.114592
0.255805
0.37493
0.473993
0.554989
0.619843
0.670387
0.708338
0.735279
0.752694
0.761934
0.764231
0.760698
0.752329
0.740005
0.724498
0.706477
0.686514
0.665098
0.64265
0.619534
0.596065
0.572519
0.549131
0.526102
0.503601
0.481772
0.460737
0.4406
0.421451
0.40336
0.386372
0.370507
0.355771
0.342155
0.329643
0.318212
0.307827
0.298446
0.290019
0.282493
0.275814
0.269934
0.264803
0.260371
0.256587
0.253401
0.250762
0.24862
0.246926
0.245629
0.244678
0.244027
0.243638
0.243487
0.243555
0.243821
0.244266
0.244871
0.245617
0.246487
0.247464
0.248527
0.249651
0.250813
0.252001
0.253217
0.254466
0.25575
0.257065
0.258411
0.259785
0.261184
0.262598
0.264012
0.265407
0.266775
0.268134
0.269498
0.270874
0.272265
0.273675
0.275105
0.276556
0.278023
0.279491
0.280934
0.282343
0.283739
0.285144
0.286565
0.288001
0.289453
0.290921
0.292402
0.293884
0.295343
0.296728
0.298
0.299166
0.300225
0.301158
0.301957
0.302649
0.303383
0.304315
0.30637
0.307709
5.87082
5.15761
4.37185
3.69556
3.04705
2.35471
1.59458
0.765759
-0.118849
-1.03918
-1.9752
-2.91148
-3.83829
-4.75068
-5.64704
-6.5277
-7.39395
-8.2473
-9.08899
-9.91964
-10.7391
-11.5463
-12.3391
-13.1144
-13.868
-14.5945
-15.2879
-15.9414
-16.5476
-17.0988
-17.5877
-18.0069
-18.3501
-18.6114
-18.7863
-18.8722
-18.8678
-18.7726
-18.5878
-18.3159
-17.9608
-17.5278
-17.023
-16.4534
-15.8267
-15.1511
-14.4348
-13.6864
-12.9139
-12.1254
-11.3284
-10.5299
-9.73642
-8.95381
-8.18734
-7.44167
-6.72086
-6.02838
-5.36716
-4.73957
-4.14751
-3.59238
-3.07511
-2.59622
-2.15577
-1.75349
-1.38869
-1.06039
-0.767273
-0.507783
-0.280125
-0.0823216
0.0877403
0.232266
0.353511
0.453725
0.535134
0.599826
0.649757
0.686785
0.712641
0.728918
0.737057
0.738355
0.73397
0.724927
0.712122
0.696336
0.678238
0.658396
0.637291
0.615331
0.59286
0.570171
0.547512
0.525092
0.503089
0.481651
0.460906
0.440962
0.421913
0.403837
0.386795
0.370829
0.35596
0.342193
0.329521
0.317925
0.30738
0.297849
0.289289
0.281648
0.274874
0.268911
0.263708
0.259212
0.255371
0.252133
0.249447
0.247264
0.245534
0.244211
0.243247
0.242597
0.24222
0.242081
0.242155
0.242421
0.24286
0.243454
0.244186
0.245038
0.245996
0.247043
0.248161
0.249332
0.250537
0.251768
0.253023
0.254305
0.255613
0.256948
0.258306
0.259685
0.261082
0.26249
0.263897
0.26529
0.266666
0.268034
0.269404
0.270784
0.272176
0.273582
0.275005
0.276443
0.277892
0.279341
0.280773
0.282181
0.283579
0.284983
0.286398
0.287825
0.289265
0.290715
0.292171
0.293623
0.295048
0.296408
0.297674
0.298847
0.299925
0.300901
0.301779
0.302598
0.303497
0.304602
0.306645
0.308062
4.82539
4.15312
3.40356
2.72887
2.06218
1.34412
0.556557
-0.298517
-1.20797
-2.15352
-3.11753
-4.08652
-5.05181
-6.00877
-6.9555
-7.89176
-8.81805
-9.73502
-10.643
-11.5418
-12.4303
-13.3064
-14.1672
-15.0083
-15.8244
-16.6092
-17.3554
-18.0549
-18.6994
-19.2803
-19.7894
-20.219
-20.5621
-20.8127
-20.9662
-21.0202
-20.9735
-20.8262
-20.58
-20.2384
-19.8061
-19.2892
-18.6952
-18.0321
-17.3089
-16.535
-15.7199
-14.8732
-14.0041
-13.1217
-12.2341
-11.3492
-10.4738
-9.61418
-8.77584
-7.96349
-7.18117
-6.43225
-5.71951
-5.04515
-4.41085
-3.81779
-3.26668
-2.75781
-2.29102
-1.86581
-1.48129
-1.13624
-0.829129
-0.558174
-0.321351
-0.116452
0.0588688
0.207075
0.330707
0.432275
0.514148
0.578576
0.62774
0.663677
0.688265
0.70321
0.710053
0.710163
0.704752
0.694881
0.681469
0.665306
0.647063
0.627306
0.606507
0.585058
0.563286
0.541458
0.519794
0.498477
0.477653
0.457446
0.437957
0.419276
0.401479
0.384629
0.368778
0.353964
0.340208
0.327517
0.315884
0.305291
0.295712
0.28711
0.27944
0.272651
0.266689
0.261498
0.257024
0.25321
0.250005
0.247354
0.245208
0.243517
0.242234
0.241313
0.240711
0.240388
0.240306
0.240433
0.240746
0.241223
0.241846
0.242599
0.243467
0.244433
0.245486
0.24661
0.247792
0.249016
0.25027
0.251544
0.252838
0.254152
0.255486
0.256839
0.258209
0.259595
0.260993
0.262398
0.263801
0.265194
0.266575
0.267948
0.269323
0.270705
0.272096
0.273498
0.274913
0.276339
0.277773
0.279207
0.280628
0.282033
0.28343
0.284831
0.286239
0.287656
0.289082
0.290515
0.291949
0.293374
0.294772
0.296113
0.297375
0.298556
0.299656
0.300674
0.301623
0.302548
0.303571
0.304792
0.306785
0.308255
3.37487
2.76423
2.07337
1.42427
0.765928
0.0507876
-0.734838
-1.58779
-2.49601
-3.4437
-4.41587
-5.40099
-6.39136
-7.38256
-8.37233
-9.35971
-10.3443
-11.3259
-12.3037
-13.2764
-14.2418
-15.1966
-16.1364
-17.0555
-17.9469
-18.8026
-19.6139
-20.3711
-21.0646
-21.6847
-22.2222
-22.6687
-23.0169
-23.2605
-23.3949
-23.4179
-23.3285
-23.1273
-22.8167
-22.401
-21.8858
-21.2783
-20.587
-19.8211
-18.991
-18.1072
-17.1808
-16.2227
-15.2435
-14.2534
-13.2617
-12.2772
-11.3074
-10.3591
-9.43808
-8.54919
-7.69649
-6.88324
-6.11202
-5.38479
-4.70295
-4.06738
-3.47849
-2.93627
-2.4403
-1.98978
-1.58354
-1.22009
-0.897636
-0.61413
-0.367285
-0.154639
0.0264375
0.178755
0.305112
0.408164
0.490506
0.554662
0.60302
0.637795
0.66102
0.674531
0.679972
0.678796
0.672272
0.661501
0.647427
0.630854
0.612456
0.592794
0.572332
0.551447
0.530446
0.509574
0.489023
0.468947
0.449461
0.43066
0.412616
0.395391
0.379037
0.3636
0.349118
0.33562
0.323127
0.311644
0.301169
0.291687
0.28317
0.275584
0.268885
0.263021
0.257938
0.253579
0.249888
0.246808
0.244284
0.242264
0.240697
0.239534
0.23873
0.238242
0.23803
0.238058
0.23829
0.238701
0.239265
0.239965
0.240783
0.241704
0.242716
0.243805
0.244959
0.246168
0.24742
0.248703
0.250007
0.251327
0.25266
0.254006
0.255365
0.256737
0.25812
0.259514
0.260914
0.262318
0.26372
0.265113
0.266497
0.267875
0.269253
0.270635
0.272024
0.273421
0.274828
0.276244
0.277665
0.279085
0.280497
0.281897
0.283291
0.284686
0.286087
0.287494
0.288907
0.290323
0.291737
0.293139
0.294514
0.29584
0.2971
0.29829
0.299412
0.300469
0.301481
0.30249
0.303604
0.304899
0.306819
0.308322
1.70353
1.16363
0.541434
-0.0688743
-0.703676
-1.40024
-2.16899
-3.00643
-3.90194
-4.84214
-5.81446
-6.80913
-7.81938
-8.84099
-9.87139
-10.9091
-11.9528
-13.0014
-14.0531
-15.1054
-16.1547
-17.1964
-18.2242
-19.2307
-20.2069
-21.1429
-22.028
-22.8509
-23.6004
-24.2656
-24.8365
-25.3039
-25.6602
-25.8992
-26.0162
-26.0093
-25.8777
-25.6227
-25.2475
-24.7568
-24.1574
-23.4572
-22.6656
-21.7929
-20.8505
-19.8504
-18.8048
-17.7261
-16.6264
-15.5174
-14.4099
-13.3138
-12.2377
-11.1892
-10.1747
-9.19921
-8.26701
-7.38127
-6.54437
-5.75797
-5.02315
-4.34041
-3.7098
-3.13094
-2.60303
-2.12493
-1.69514
-1.31183
-0.972901
-0.675969
-0.418455
-0.197584
-0.0103354
0.146393
0.275573
0.380139
0.462987
0.526877
0.574408
0.607987
0.629807
0.641845
0.645853
0.643367
0.635721
0.624056
0.609343
0.592398
0.573897
0.554397
0.534352
0.514125
0.494001
0.474203
0.454898
0.436211
0.418227
0.40101
0.384602
0.369035
0.354332
0.340515
0.327604
0.315616
0.304564
0.294453
0.285282
0.277038
0.2697
0.263234
0.257598
0.252742
0.248613
0.245154
0.242307
0.240015
0.238222
0.236877
0.235928
0.23533
0.235037
0.235012
0.235216
0.235616
0.236183
0.236891
0.237721
0.238654
0.239676
0.240774
0.241937
0.243155
0.244418
0.245717
0.247044
0.24839
0.249749
0.251115
0.252487
0.253866
0.25525
0.256641
0.258038
0.25944
0.260845
0.26225
0.263651
0.265045
0.26643
0.267811
0.26919
0.270572
0.271958
0.273351
0.27475
0.276156
0.277566
0.278974
0.280376
0.28177
0.283159
0.284549
0.285941
0.287338
0.288738
0.290138
0.291534
0.292917
0.294273
0.295588
0.296846
0.298045
0.299188
0.30028
0.301344
0.302419
0.303597
0.304936
0.30677
0.308291
-0.0297807
-0.497211
-1.04935
-1.61633
-2.22204
-2.89495
-3.64288
-4.46227
-5.34381
-6.27621
-7.24897
-8.2538
-9.28477
-10.3379
-11.4104
-12.5003
-13.6057
-14.7246
-15.8542
-16.9908
-18.1294
-19.2635
-20.3851
-21.4846
-22.5508
-23.5717
-24.5346
-25.4264
-26.2346
-26.947
-27.5528
-28.0426
-28.4084
-28.6438
-28.7444
-28.7087
-28.5366
-28.2298
-27.7921
-27.2292
-26.5484
-25.7584
-24.8692
-23.8921
-22.8391
-21.7232
-20.5577
-19.3561
-18.132
-16.8984
-15.6677
-14.4515
-13.2597
-12.1012
-10.9833
-9.91179
-8.89122
-7.9249
-7.01508
-6.16318
-5.3699
-4.63534
-3.95908
-3.34031
-2.77781
-2.27
-1.81499
-1.41055
-1.05421
-0.743204
-0.474606
-0.245209
-0.0516146
0.109503
0.241432
0.347456
0.430739
0.49429
0.540928
0.573257
0.593641
0.604193
0.606777
0.603015
0.594299
0.581812
0.566549
0.549335
0.530848
0.511638
0.492145
0.472716
0.453617
0.435047
0.417148
0.400016
0.38371
0.368262
0.353684
0.339977
0.327136
0.315156
0.304033
0.293766
0.284357
0.275805
0.268108
0.261257
0.255234
0.250009
0.245545
0.241794
0.238705
0.236221
0.234285
0.23284
0.231832
0.231207
0.230919
0.230921
0.231172
0.231637
0.232281
0.233075
0.233994
0.235015
0.236122
0.237298
0.238533
0.239815
0.241136
0.242488
0.243865
0.24526
0.246666
0.248079
0.249493
0.250907
0.252319
0.25373
0.255141
0.256551
0.257962
0.259373
0.260783
0.26219
0.263592
0.264986
0.266374
0.267755
0.269135
0.270515
0.271898
0.273286
0.274678
0.276075
0.277474
0.278871
0.280265
0.281652
0.283035
0.284418
0.285802
0.287188
0.288575
0.289961
0.291341
0.292707
0.294048
0.295353
0.29661
0.297818
0.298979
0.300102
0.301208
0.302334
0.303554
0.304914
0.306661
0.308185
-1.68723
-2.08472
-2.57062
-3.09595
-3.67418
-4.32606
-5.05702
-5.86332
-6.73669
-7.66747
-8.64676
-9.66746
-10.7243
-11.8135
-12.9322
-14.0781
-15.2487
-16.4411
-17.6518
-18.8756
-20.1062
-21.3351
-22.5524
-23.7462
-24.9032
-26.0092
-27.0497
-28.0101
-28.8763
-29.6355
-30.2761
-30.7883
-31.164
-31.3969
-31.4826
-31.4201
-31.2102
-30.855
-30.3591
-29.7288
-28.9721
-28.0985
-27.1187
-26.0445
-24.8886
-23.6642
-22.3854
-21.0664
-19.7216
-18.3652
-17.011
-15.6719
-14.3599
-13.0853
-11.8569
-10.6817
-9.56506
-8.51081
-7.52133
-6.59791
-5.74091
-4.95002
-4.22436
-3.56257
-2.96295
-2.42344
-1.94167
-1.515
-1.14047
-0.814955
-0.535034
-0.29702
-0.0972221
0.0680392
0.20249
0.309732
0.393223
0.456237
0.501828
0.532802
0.551689
0.560742
0.56193
0.556956
0.547267
0.534082
0.518412
0.501091
0.482791
0.464052
0.445299
0.42686
0.408978
0.391829
0.37553
0.360148
0.345716
0.332235
0.31969
0.308051
0.297285
0.287359
0.278243
0.269916
0.262363
0.255573
0.24954
0.244255
0.239702
0.235857
0.232687
0.23015
0.228196
0.226772
0.225822
0.22529
0.225123
0.225269
0.225684
0.226323
0.227151
0.228133
0.22924
0.230448
0.231735
0.233083
0.234477
0.235906
0.237361
0.238834
0.240318
0.24181
0.243305
0.244798
0.246287
0.247769
0.249242
0.250704
0.252156
0.2536
0.255036
0.256467
0.257892
0.259313
0.260728
0.262138
0.263541
0.264937
0.266324
0.267706
0.269085
0.270464
0.271843
0.273225
0.274611
0.275999
0.277388
0.278776
0.280161
0.28154
0.282917
0.284292
0.285667
0.287043
0.288418
0.289791
0.291156
0.292507
0.293836
0.295133
0.29639
0.297606
0.298783
0.299932
0.301072
0.302235
0.303481
0.304846
0.306506
0.308024
-3.20056
-3.53196
-3.95887
-4.4483
-5.00506
-5.64297
-6.36511
-7.16744
-8.04242
-8.98157
-9.97716
-11.0229
-12.114
-13.2469
-14.4185
-15.6263
-16.8672
-18.1377