/*--------------------------------*- C++ -*----------------------------------*\
  =========                 |
  \\      /  F ield         | OpenFOAM: The Open Source CFD Toolbox
   \\    /   O peration     | Website:  https://openfoam.org
    \\  /    A nd           | Version:  9
     \\/     M anipulation  |
\*---------------------------------------------------------------------------*/
FoamFile
{
    format      ascii;
    class       surfaceScalarField;
    location    "0.02";
    object      phi;
}
// * * * * * * * * * * * * * * * * * * * * * * * * * * * * * * * * * * * * * //

dimensions      [0 3 -1 0 0 0 0];

internalField   nonuniform List<scalar> 
24170
(
3.07798e-07
1.10427e-08
2.56271e-07
5.15272e-08
2.16048e-07
4.02226e-08
1.85966e-07
3.00818e-08
1.66665e-07
1.93011e-08
1.55661e-07
1.10038e-08
1.48749e-07
6.91192e-09
1.42331e-07
6.41855e-09
1.33613e-07
8.7181e-09
1.20801e-07
1.28123e-08
1.03519e-07
1.72812e-08
8.30182e-08
2.05012e-08
6.19774e-08
2.10408e-08
4.39688e-08
1.80085e-08
3.45354e-08
9.43347e-09
4.65199e-08
-1.19845e-08
1.10265e-07
-6.37448e-08
2.73896e-08
8.28751e-08
3.39852e-07
1.29158e-08
3.26968e-07
6.44108e-08
3.0071e-07
6.64809e-08
2.74441e-07
5.63512e-08
2.53905e-07
3.98362e-08
2.40658e-07
2.42511e-08
2.33137e-07
1.44335e-08
2.28228e-07
1.13268e-08
2.22557e-07
1.4389e-08
2.13126e-07
2.2244e-08
1.97864e-07
3.25432e-08
1.76292e-07
4.20733e-08
1.50062e-07
4.72701e-08
1.23229e-07
4.48414e-08
1.02225e-07
3.04373e-08
9.80028e-08
-7.76187e-09
1.15437e-07
-8.1179e-08
5.75811e-08
8.52456e-08
3.62048e-07
1.71198e-08
3.5648e-07
6.99781e-08
3.39421e-07
8.35405e-08
3.19042e-07
7.67299e-08
3.01249e-07
5.76293e-08
2.89169e-07
3.63309e-08
2.82636e-07
2.09663e-08
2.7933e-07
1.46332e-08
2.7621e-07
1.75093e-08
2.70299e-07
2.81551e-08
2.59108e-07
4.37339e-08
2.41115e-07
6.00662e-08
2.16414e-07
7.19715e-08
1.87463e-07
7.37926e-08
1.59192e-07
5.87077e-08
1.38452e-07
1.29782e-08
1.19201e-07
-6.19277e-08
8.26118e-08
9.41701e-08
3.89662e-07
1.9997e-08
3.84562e-07
7.50774e-08
3.71185e-07
9.6918e-08
3.54494e-07
9.3421e-08
3.39466e-07
7.2657e-08
3.29181e-07
4.66157e-08
3.24003e-07
2.61448e-08
3.22196e-07
1.64399e-08
3.21141e-07
1.85644e-08
3.18115e-07
3.11812e-08
3.10633e-07
5.12154e-08
2.96694e-07
7.40048e-08
2.75203e-07
9.34633e-08
2.46702e-07
1.02293e-07
2.13639e-07
9.1771e-08
1.7849e-07
4.81273e-08
1.34894e-07
-1.8332e-08
1.12693e-07
1.04813e-07
4.18253e-07
2.24569e-08
4.13016e-07
8.03142e-08
4.01642e-07
1.08292e-07
3.8764e-07
1.07423e-07
3.75117e-07
8.51801e-08
3.66741e-07
5.49912e-08
3.63021e-07
2.98649e-08
3.62611e-07
1.68504e-08
3.63271e-07
1.79045e-08
3.62578e-07
3.18736e-08
3.58211e-07
5.55829e-08
3.48007e-07
8.42087e-08
3.30093e-07
1.11377e-07
3.03319e-07
1.29067e-07
2.67493e-07
1.27598e-07
2.21499e-07
9.41211e-08
1.60794e-07
4.23736e-08
1.5443e-07
1.19057e-07
4.48267e-07
2.50983e-08
4.42797e-07
8.57846e-08
4.32699e-07
1.1839e-07
4.20819e-07
1.19304e-07
4.10538e-07
9.54604e-08
4.0404e-07
6.14899e-08
4.01781e-07
3.21234e-08
4.02657e-07
1.59744e-08
4.04738e-07
1.58238e-08
4.05887e-07
3.07241e-08
4.03992e-07
5.74779e-08
3.96909e-07
9.12917e-08
3.82348e-07
1.25938e-07
3.57932e-07
1.53483e-07
3.21265e-07
1.64264e-07
2.686e-07
1.46787e-07
1.9655e-07
1.14424e-07
2.08675e-07
1.42304e-07
4.80301e-07
2.80697e-08
4.74511e-07
9.15746e-08
4.65288e-07
1.27613e-07
4.55158e-07
1.29433e-07
4.46894e-07
1.03725e-07
4.42184e-07
6.61995e-08
4.41334e-07
3.29737e-08
4.43368e-07
1.39403e-08
4.46601e-07
1.25907e-08
4.49152e-07
2.8173e-08
4.49122e-07
5.75083e-08
4.44476e-07
9.59378e-08
4.32783e-07
1.37631e-07
4.10981e-07
1.75285e-07
3.75209e-07
2.00036e-07
3.1997e-07
2.02027e-07
2.42322e-07
1.92071e-07
2.7315e-07
1.77847e-07
5.14694e-07
3.13341e-08
5.08536e-07
9.77319e-08
4.99963e-07
1.36187e-07
4.91336e-07
1.38059e-07
4.84897e-07
1.10164e-07
4.81863e-07
6.92343e-08
4.82324e-07
3.25127e-08
4.85362e-07
1.09019e-08
4.89487e-07
8.46599e-09
4.93044e-07
2.46154e-08
4.94346e-07
5.62069e-08
4.91519e-07
9.87647e-08
4.82189e-07
1.46961e-07
4.63078e-07
1.94395e-07
4.29655e-07
2.33459e-07
3.7558e-07
2.56102e-07
2.9775e-07
2.69901e-07
3.44372e-07
2.26528e-07
5.51662e-07
3.48054e-08
5.45169e-07
1.04225e-07
5.37131e-07
1.44225e-07
5.29836e-07
1.45355e-07
5.25059e-07
1.1494e-07
5.23563e-07
7.07301e-08
5.25198e-07
3.08777e-08
5.29055e-07
7.04481e-09
5.33807e-07
3.71442e-09
5.38015e-07
2.04077e-08
5.40209e-07
5.40131e-08
5.38722e-07
1.00252e-07
5.31372e-07
1.54311e-07
5.1502e-07
2.10747e-07
4.85137e-07
2.63343e-07
4.35392e-07
3.05846e-07
3.62296e-07
3.42997e-07
4.17943e-07
2.88725e-07
5.91398e-07
3.83848e-08
5.84674e-07
1.10949e-07
5.77137e-07
1.51762e-07
5.7105e-07
1.51442e-07
5.67781e-07
1.18209e-07
5.67663e-07
7.08486e-08
5.70292e-07
2.82489e-08
5.74745e-07
2.59115e-09
5.79848e-07
-1.38827e-09
5.84384e-07
1.58712e-08
5.87129e-07
5.12688e-08
5.86668e-07
1.00712e-07
5.81114e-07
1.59865e-07
5.67701e-07
2.24159e-07
5.42379e-07
2.88666e-07
4.99509e-07
3.48716e-07
4.35517e-07
4.06989e-07
4.88121e-07
3.65339e-07
6.34094e-07
4.19724e-08
6.27297e-07
1.17745e-07
6.20285e-07
1.58775e-07
6.15317e-07
1.56409e-07
6.13402e-07
1.20125e-07
6.14469e-07
6.97814e-08
6.17867e-07
2.48508e-08
6.22656e-07
-2.19804e-09
6.27821e-07
-6.55361e-09
6.32398e-07
1.12949e-08
6.35444e-07
4.82226e-08
6.35859e-07
1.00297e-07
6.32131e-07
1.63593e-07
6.22012e-07
2.34277e-07
6.02207e-07
3.08471e-07
5.68211e-07
3.82713e-07
5.16893e-07
4.58307e-07
5.48491e-07
4.56523e-07
5.71111e-07
4.49445e-08
5.6548e-07
1.23376e-07
5.60014e-07
1.64241e-07
5.56631e-07
1.59792e-07
5.55936e-07
1.20819e-07
5.57584e-07
6.81332e-08
5.60848e-07
2.15876e-08
5.6493e-07
-6.28053e-09
5.69118e-07
-1.07418e-08
5.72823e-07
7.58979e-09
5.75512e-07
4.5534e-08
5.76543e-07
9.92654e-08
5.74982e-07
1.65155e-07
5.69394e-07
2.39865e-07
5.57676e-07
3.20188e-07
5.37091e-07
4.03298e-07
5.05688e-07
4.8971e-07
5.86779e-07
4.674e-07
6.96564e-07
4.81959e-08
6.90381e-07
1.2956e-07
6.84756e-07
1.69866e-07
6.8181e-07
1.62738e-07
6.81955e-07
1.20674e-07
6.84504e-07
6.5584e-08
6.88459e-07
1.76329e-08
6.92936e-07
-1.07574e-08
6.97313e-07
-1.51193e-08
7.01212e-07
3.69069e-09
7.04361e-07
4.23852e-08
7.06401e-07
9.7226e-08
7.06694e-07
1.64862e-07
7.04156e-07
2.42403e-07
6.9715e-07
3.27194e-07
6.83596e-07
4.16853e-07
6.62357e-07
5.10949e-07
6.1287e-07
6.36266e-07
8.4969e-07
5.15903e-08
8.43274e-07
1.35976e-07
8.37891e-07
1.75249e-07
8.35752e-07
1.64877e-07
8.36965e-07
1.19462e-07
8.40419e-07
6.21293e-08
8.44831e-07
1.32209e-08
8.49296e-07
-1.52225e-08
8.53425e-07
-1.92477e-08
8.5723e-07
-1.14523e-10
8.60904e-07
3.87111e-08
8.64585e-07
9.35451e-08
8.68163e-07
1.61284e-07
8.71148e-07
2.39419e-07
8.72604e-07
3.25738e-07
8.71295e-07
4.18161e-07
8.6677e-07
5.15474e-07
6.18404e-07
8.61237e-07
1.03661e-06
5.48994e-08
1.03057e-06
1.42015e-07
1.02612e-06
1.79706e-07
1.02531e-06
1.65687e-07
1.02778e-06
1.1699e-07
1.03194e-06
5.79646e-08
1.03628e-06
8.88394e-09
1.04002e-06
-1.89637e-08
1.04324e-06
-2.24645e-08
1.0466e-06
-3.47384e-09
1.05103e-06
3.42828e-08
1.05744e-06
8.7136e-08
1.06654e-06
1.5218e-07
1.07875e-06
2.2721e-07
1.0941e-06
3.10388e-07
1.11228e-06
3.99976e-07
1.13324e-06
4.94516e-07
5.93329e-07
1.15831e-06
1.26484e-06
5.77344e-08
1.26023e-06
1.46626e-07
1.25787e-06
1.82072e-07
1.2592e-06
1.64354e-07
1.26315e-06
1.13038e-07
1.26764e-06
5.34763e-08
1.27108e-06
5.4445e-09
1.27315e-06
-2.10311e-08
1.27472e-06
-2.40389e-08
1.27746e-06
-6.2134e-09
1.28335e-06
2.83972e-08
1.29437e-06
7.61154e-08
1.31239e-06
1.34159e-07
1.33908e-06
2.00514e-07
1.37584e-06
2.73636e-07
1.42353e-06
3.52284e-07
1.48252e-06
4.3552e-07
5.22813e-07
1.55304e-06
1.54364e-06
5.94121e-08
1.54222e-06
1.48049e-07
1.54389e-06
1.80402e-07
1.54876e-06
1.59484e-07
1.55469e-06
1.07106e-07
1.5592e-06
4.89658e-08
1.56097e-06
3.67191e-09
1.56064e-06
-2.06976e-08
1.56034e-06
-2.37409e-08
1.5631e-06
-8.96935e-09
1.57228e-06
1.92158e-08
1.5912e-06
5.71965e-08
1.6231e-06
1.0226e-07
1.67112e-06
1.52489e-07
1.73838e-06
2.06377e-07
1.82735e-06
2.63315e-07
1.93944e-06
3.2343e-07
3.87781e-07
2.07447e-06
1.88445e-06
5.8724e-08
1.88903e-06
1.43472e-07
1.89784e-06
1.71589e-07
1.90859e-06
1.48737e-07
1.91788e-06
9.78165e-08
1.92284e-06
4.40025e-08
1.92322e-06
3.29374e-09
1.92109e-06
-1.85638e-08
1.92032e-06
-2.29744e-08
1.9256e-06
-1.42517e-08
1.94168e-06
3.13731e-09
1.97372e-06
2.5158e-08
2.02594e-06
5.00441e-08
2.10215e-06
7.62792e-08
2.20697e-06
1.01558e-07
2.344e-06
1.26284e-07
2.51623e-06
1.51197e-07
1.79784e-07
2.72423e-06
2.30144e-06
5.36166e-08
2.31614e-06
1.28773e-07
2.33648e-06
1.51252e-07
2.35677e-06
1.28449e-07
2.37188e-06
8.26982e-08
2.37966e-06
3.62235e-08
2.38101e-06
1.94291e-09
2.37978e-06
-1.73343e-08
2.3816e-06
-2.47898e-08
2.39266e-06
-2.53114e-08
2.41888e-06
-2.30828e-08
2.46505e-06
-2.1015e-08
2.53605e-06
-2.09548e-08
2.63655e-06
-2.42234e-08
2.76981e-06
-3.16939e-08
2.93935e-06
-4.32647e-08
3.14796e-06
-5.74142e-08
-7.08056e-08
3.39855e-06
1.68758e-06
4.711e-08
1.70406e-06
1.12285e-07
1.72491e-06
1.30405e-07
1.74447e-06
1.08888e-07
1.75898e-06
6.81948e-08
1.76716e-06
2.80396e-08
1.77009e-06
-9.8618e-10
1.77056e-06
-1.78088e-08
1.77238e-06
-2.6609e-08
1.77954e-06
-3.24689e-08
1.79559e-06
-3.91284e-08
1.82328e-06
-4.87093e-08
1.86462e-06
-6.22948e-08
1.92091e-06
-8.05098e-08
1.99295e-06
-1.03736e-07
2.08159e-06
-1.31902e-07
2.18815e-06
-1.63974e-07
-1.97354e-07
2.31469e-06
1.47081e-06
3.9758e-08
1.48873e-06
9.43613e-08
1.51061e-06
1.08526e-07
1.53084e-06
8.86609e-08
1.54624e-06
5.27886e-08
1.55586e-06
1.84192e-08
1.56048e-06
-5.60307e-09
1.56213e-06
-1.94574e-08
1.56358e-06
-2.80581e-08
1.56772e-06
-3.6612e-08
1.577e-06
-4.8409e-08
1.59305e-06
-6.47528e-08
1.61655e-06
-8.57972e-08
1.64737e-06
-1.11334e-07
1.68482e-06
-1.41184e-07
1.72809e-06
-1.75169e-07
1.77688e-06
-2.12762e-07
-2.52428e-07
1.83195e-06
1.28157e-06
3.21972e-08
1.29968e-06
7.6255e-08
1.32138e-06
8.68308e-08
1.34142e-06
6.8612e-08
1.35712e-06
3.70891e-08
1.36763e-06
7.91791e-09
1.3733e-06
-1.12734e-08
1.37544e-06
-2.16045e-08
1.37597e-06
-2.85853e-08
1.37687e-06
-3.7516e-08
1.37975e-06
-5.12799e-08
1.38543e-06
-7.0434e-08
1.39391e-06
-9.42798e-08
1.40443e-06
-1.21855e-07
1.41571e-06
-1.52469e-07
1.42634e-06
-1.85798e-07
1.43524e-06
-2.21655e-07
-2.59408e-07
1.44222e-06
1.11638e-06
2.4909e-08
1.13397e-06
5.8667e-08
1.15484e-06
6.59638e-08
1.17413e-06
4.93143e-08
1.18951e-06
2.17135e-08
1.20005e-06
-2.62775e-09
1.20585e-06
-1.70725e-08
1.20778e-06
-2.35315e-08
1.20716e-06
-2.79627e-08
1.2053e-06
-3.56616e-08
1.20313e-06
-4.91093e-08
1.20093e-06
-6.82335e-08
1.19833e-06
-9.16758e-08
1.19441e-06
-1.17934e-07
1.18791e-06
-1.45976e-07
1.17751e-06
-1.7539e-07
1.16206e-06
-2.06208e-07
-2.38414e-07
1.14107e-06
9.72138e-07
1.82921e-08
9.88844e-07
4.19612e-08
1.00859e-06
4.62214e-08
1.02676e-06
3.11459e-08
1.04114e-06
7.32877e-09
1.05077e-06
-1.22609e-08
1.05571e-06
-2.20061e-08
1.05674e-06
-2.45631e-08
1.0549e-06
-2.61296e-08
1.05102e-06
-3.17754e-08
1.04541e-06
-4.35003e-08
1.03789e-06
-6.07145e-08
1.02787e-06
-8.16514e-08
1.01449e-06
-1.0456e-07
9.96817e-07
-1.28301e-07
9.73898e-07
-1.52471e-07
9.44932e-07
-1.77242e-07
-2.02953e-07
9.09472e-07
8.46177e-07
1.26508e-08
8.61822e-07
2.63154e-08
8.80308e-07
2.77357e-08
8.97011e-07
1.44424e-08
9.09706e-07
-5.36556e-09
9.17441e-07
-1.99962e-08
9.20554e-07
-2.51188e-08
9.20103e-07
-2.41123e-08
9.17067e-07
-2.30936e-08
9.1186e-07
-2.65681e-08
9.04269e-07
-3.59097e-08
8.93667e-07
-5.01126e-08
8.79291e-07
-6.72756e-08
8.60447e-07
-8.5715e-08
8.3657e-07
-1.04424e-07
8.07192e-07
-1.23093e-07
7.71906e-07
-1.41956e-07
-1.61485e-07
7.30437e-07
7.36009e-07
8.37001e-09
7.50669e-07
1.16559e-08
7.67762e-07
1.06422e-08
7.82547e-07
-3.42444e-10
7.92743e-07
-1.5561e-08
7.97599e-07
-2.48525e-08
7.98071e-07
-2.5591e-08
7.95719e-07
-2.17601e-08
7.91556e-07
-1.89305e-08
7.85624e-07
-2.06363e-08
7.77201e-07
-2.74869e-08
7.65274e-07
-3.81849e-08
7.48964e-07
-5.09663e-08
7.27747e-07
-6.44973e-08
7.01413e-07
-7.80909e-08
6.69899e-07
-9.1579e-08
6.33112e-07
-1.05169e-07
-1.1928e-07
5.90908e-07
6.38848e-07
6.52835e-09
6.53298e-07
-2.79407e-09
6.68585e-07
-4.64473e-09
6.80665e-07
-1.24218e-08
6.87316e-07
-2.22124e-08
6.88335e-07
-2.58715e-08
6.85596e-07
-2.28524e-08
6.81214e-07
-1.73774e-08
6.76143e-07
-1.38596e-08
6.69989e-07
-1.44826e-08
6.61567e-07
-1.90654e-08
6.49602e-07
-2.62195e-08
6.33201e-07
-3.45657e-08
6.12007e-07
-4.33033e-08
5.86063e-07
-5.21468e-08
5.55549e-07
-6.10645e-08
5.20546e-07
-7.01663e-08
-7.96915e-08
4.80957e-07
5.51428e-07
9.64674e-09
5.67996e-07
-1.93618e-08
5.79601e-07
-1.62501e-08
5.87486e-07
-2.03071e-08
5.89139e-07
-2.38654e-08
5.85429e-07
-2.21606e-08
5.79322e-07
-1.67455e-08
5.73225e-07
-1.12808e-08
5.67711e-07
-8.34585e-09
5.61821e-07
-8.59204e-09
5.5401e-07
-1.12548e-08
5.42952e-07
-1.51613e-08
5.27894e-07
-1.95083e-08
5.08641e-07
-2.40502e-08
4.85333e-07
-2.88381e-08
4.58189e-07
-3.3921e-08
4.27313e-07
-3.92897e-08
-4.49646e-08
3.92586e-07
4.82519e-07
9.8886e-09
4.91192e-07
-2.80348e-08
4.95777e-07
-2.08349e-08
4.94917e-07
-1.94479e-08
4.88973e-07
-1.79212e-08
4.79823e-07
-1.30102e-08
4.70958e-07
-7.88092e-09
4.64162e-07
-4.4842e-09
4.59029e-07
-3.21353e-09
4.53964e-07
-3.52614e-09
4.4732e-07
-4.61177e-09
4.38041e-07
-5.8818e-09
4.25693e-07
-7.16047e-09
4.10214e-07
-8.57131e-09
3.91658e-07
-1.02814e-08
3.70067e-07
-1.23304e-08
3.45421e-07
-1.46436e-08
-1.70999e-08
3.17556e-07
4.30156e-07
4.02121e-07
3.81287e-07
3.61839e-07
3.43917e-07
3.30907e-07
3.23026e-07
3.18542e-07
3.15329e-07
3.11802e-07
3.07191e-07
3.01309e-07
2.94148e-07
2.85577e-07
2.75296e-07
2.62965e-07
2.48322e-07
2.31222e-07
3.0226e-07
-3.0226e-07
7.33926e-07
-4.31666e-07
1.12404e-06
-3.90111e-07
1.42836e-06
-3.04324e-07
1.63755e-06
-2.09188e-07
1.75136e-06
-1.13811e-07
1.77671e-06
-2.53505e-08
1.70852e-06
6.81898e-08
1.56581e-06
1.42707e-07
1.37557e-06
1.90241e-07
1.16694e-06
2.08635e-07
9.63745e-07
2.03194e-07
7.76817e-07
1.86928e-07
6.01895e-07
1.74922e-07
4.24137e-07
1.77758e-07
2.24096e-07
2.00041e-07
-1.78988e-08
2.41995e-07
-3.17539e-07
2.9964e-07
-6.75204e-07
3.57665e-07
-1.07883e-06
4.03628e-07
-1.51227e-06
4.33442e-07
-1.95903e-06
4.46753e-07
-2.40408e-06
4.45056e-07
-2.83485e-06
4.30764e-07
-3.24151e-06
4.06659e-07
-3.61702e-06
3.75516e-07
-3.95681e-06
3.39792e-07
-4.25843e-06
3.01614e-07
-4.52112e-06
2.62689e-07
-4.74539e-06
2.24276e-07
-4.93262e-06
1.8723e-07
-5.08469e-06
1.5207e-07
-5.20375e-06
1.19057e-07
-5.29202e-06
8.82718e-08
-5.35172e-06
5.97007e-08
-5.38506e-06
3.33392e-08
-5.39373e-06
8.66846e-09
-5.38322e-06
-1.05117e-08
-5.35591e-06
-2.73052e-08
-5.31387e-06
-4.20402e-08
-5.25863e-06
-5.52472e-08
-5.19131e-06
-6.7314e-08
-5.11288e-06
-7.84365e-08
-5.02416e-06
-8.8714e-08
-4.92597e-06
-9.81945e-08
-4.81907e-06
-1.06898e-07
-4.70424e-06
-1.14832e-07
-4.58224e-06
-1.21996e-07
-4.45385e-06
-1.28388e-07
-4.31985e-06
-1.34008e-07
-4.18099e-06
-1.38856e-07
-4.03805e-06
-1.42935e-07
-3.8918e-06
-1.46253e-07
-3.74298e-06
-1.4882e-07
-3.59233e-06
-1.50651e-07
-3.44056e-06
-1.51766e-07
-3.28838e-06
-1.52187e-07
-3.13643e-06
-1.51942e-07
-2.98537e-06
-1.51062e-07
-2.83579e-06
-1.49582e-07
-2.68825e-06
-1.47539e-07
-2.54328e-06
-1.44974e-07
-2.40135e-06
-1.4193e-07
-2.2629e-06
-1.38452e-07
-2.12831e-06
-1.34587e-07
-1.99793e-06
-1.30382e-07
-1.87204e-06
-1.25883e-07
-1.75091e-06
-1.21137e-07
-1.63472e-06
-1.1619e-07
-1.52363e-06
-1.11087e-07
-1.41776e-06
-1.05868e-07
-1.31719e-06
-1.00574e-07
-1.22195e-06
-9.52414e-08
-1.13204e-06
-8.99026e-08
-1.04746e-06
-8.45881e-08
-9.68131e-07
-7.93243e-08
-8.93996e-07
-7.41345e-08
-8.24958e-07
-6.90384e-08
-7.60905e-07
-6.40528e-08
-7.01714e-07
-5.91909e-08
-6.47253e-07
-5.4461e-08
-5.97392e-07
-4.98608e-08
-5.52021e-07
-4.5371e-08
-5.11028e-07
-4.09937e-08
-4.74094e-07
-3.69334e-08
-4.40138e-07
-3.39568e-08
-4.07424e-07
-3.27137e-08
-3.75459e-07
-3.19649e-08
-3.47576e-07
-2.78825e-08
-3.22557e-07
-2.50198e-08
-2.99747e-07
-2.28099e-08
-2.81202e-07
-1.85445e-08
-2.65276e-07
-1.59266e-08
-2.51604e-07
-1.36712e-08
-2.40013e-07
-1.15912e-08
-2.29995e-07
-1.00178e-08
-2.20607e-07
-9.38811e-09
-2.13261e-07
-7.34659e-09
-2.08747e-07
-4.51394e-09
-2.06285e-07
-2.46222e-09
-2.05682e-07
-6.02127e-10
-2.06253e-07
5.70983e-10
-2.0746e-07
1.20693e-09
-2.09256e-07
1.796e-09
-2.11765e-07
2.50861e-09
-2.14897e-07
3.13228e-09
-2.18401e-07
3.50335e-09
-2.21994e-07
3.59343e-09
-2.2545e-07
3.45577e-09
-2.28673e-07
3.22369e-09
-2.31802e-07
3.12868e-09
-2.35081e-07
3.27928e-09
-2.38568e-07
3.4865e-09
-2.42093e-07
3.52475e-09
-2.4549e-07
3.39704e-09
-2.48678e-07
3.18822e-09
-2.51616e-07
2.93803e-09
-2.54276e-07
2.66044e-09
-2.56607e-07
2.33063e-09
-2.58485e-07
1.87826e-09
-2.59746e-07
1.26077e-09
-2.60357e-07
6.10618e-10
-2.60598e-07
2.40852e-10
-2.6089e-07
2.92154e-10
-2.61348e-07
4.58683e-10
-2.61782e-07
4.34047e-10
-2.62028e-07
2.45855e-10
-2.62051e-07
2.27416e-11
-2.61813e-07
-2.37791e-10
-2.61348e-07
-4.65432e-10
-2.60634e-07
-7.13935e-10
-2.59579e-07
-1.05533e-09
-2.58032e-07
-1.54608e-09
-2.55967e-07
-2.06544e-09
-2.53669e-07
-2.29823e-09
-2.51613e-07
-2.05575e-09
-2.49959e-07
-1.6545e-09
-2.48473e-07
-1.48547e-09
-2.46958e-07
-1.51505e-09
-2.45362e-07
-1.59634e-09
-2.43676e-07
-1.68604e-09
-2.41883e-07
-1.79256e-09
-2.399e-07
-1.98325e-09
-2.37562e-07
-2.33743e-09
-2.34771e-07
-2.79117e-09
-2.31751e-07
-3.02006e-09
-2.29027e-07
-2.72422e-09
-2.26846e-07
-2.18068e-09
-2.24966e-07
-1.8803e-09
-2.23135e-07
-1.83057e-09
-2.21286e-07
-1.84933e-09
-2.19408e-07
-1.87824e-09
-2.17493e-07
-1.91446e-09
-2.15475e-07
-2.01823e-09
-2.13186e-07
-2.28954e-09
-2.10464e-07
-2.7212e-09
-2.07464e-07
-3.0006e-09
-2.04757e-07
-2.70711e-09
-2.02716e-07
-2.04059e-09
-2.01112e-07
-1.60447e-09
-1.99643e-07
-1.4687e-09
-1.98237e-07
-1.40634e-09
-1.96899e-07
-1.33771e-09
-1.95651e-07
-1.248e-09
-1.94466e-07
-1.18514e-09
-1.93211e-07
-1.25478e-09
-1.91711e-07
-1.49956e-09
-1.90078e-07
-1.63303e-09
-1.88931e-07
-1.14743e-09
-1.88812e-07
-1.18651e-10
-1.89648e-07
8.35991e-10
-1.91276e-07
1.62792e-09
-1.93795e-07
2.51885e-09
-1.97475e-07
3.68041e-09
-2.02876e-07
5.40018e-09
-2.10558e-07
7.68219e-09
-2.19404e-07
8.84575e-09
-2.25066e-07
5.66275e-09
-2.20608e-07
-4.45883e-09
-1.91571e-08
-2.0145e-07
4.18884e-07
-7.21144e-07
7.32065e-07
-7.44847e-07
9.31285e-07
-5.89331e-07
1.05036e-06
-4.23395e-07
1.1044e-06
-2.63233e-07
1.10181e-06
-1.11218e-07
1.04548e-06
3.098e-08
9.51285e-07
1.62382e-07
8.16546e-07
2.77447e-07
6.38612e-07
3.68174e-07
4.17378e-07
4.2987e-07
1.52503e-07
4.68068e-07
-1.58676e-07
4.98108e-07
-5.2108e-07
5.37326e-07
-9.37312e-07
5.93989e-07
-1.40102e-06
6.63751e-07
-1.8943e-06
7.35272e-07
-2.39099e-06
7.96336e-07
-2.87043e-06
8.37099e-07
-3.31936e-06
8.52555e-07
-3.72843e-06
8.4252e-07
-4.09174e-06
8.10056e-07
-4.40663e-06
7.5995e-07
-4.67342e-06
6.97551e-07
-4.89471e-06
6.27948e-07
-5.07466e-06
5.55466e-07
-5.21829e-06
4.8343e-07
-5.33083e-06
4.14153e-07
-5.41719e-06
3.49048e-07
-5.48173e-06
2.88818e-07
-5.52814e-06
2.33631e-07
-5.55937e-06
1.83308e-07
-5.57781e-06
1.37489e-07
-5.58528e-06
9.57415e-08
-5.58322e-06
5.7647e-08
-5.57276e-06
2.28766e-08
-5.55491e-06
-9.17892e-09
-5.52665e-06
-3.8773e-08
-5.48723e-06
-6.67273e-08
-5.43618e-06
-9.30926e-08
-5.37356e-06
-1.17867e-07
-5.29978e-06
-1.41091e-07
-5.21541e-06
-1.62802e-07
-5.12111e-06
-1.83021e-07
-5.01755e-06
-2.01756e-07
-4.90544e-06
-2.19001e-07
-4.78553e-06
-2.34745e-07
-4.65855e-06
-2.48976e-07
-4.52525e-06
-2.61683e-07
-4.38641e-06
-2.72857e-07
-4.24276e-06
-2.82497e-07
-4.09509e-06
-2.90608e-07
-3.94414e-06
-2.97203e-07
-3.79066e-06
-3.02301e-07
-3.63538e-06
-3.05931e-07
-3.47902e-06
-3.08131e-07
-3.32226e-06
-3.08945e-07
-3.16577e-06
-3.08427e-07
-3.0102e-06
-3.06637e-07
-2.85614e-06
-3.03643e-07
-2.70415e-06
-2.99521e-07
-2.55478e-06
-2.94352e-07
-2.40848e-06
-2.88221e-07
-2.26572e-06
-2.81219e-07
-2.12687e-06
-2.7344e-07
-1.99227e-06
-2.64978e-07
-1.86222e-06
-2.55931e-07
-1.73696e-06
-2.46394e-07
-1.61669e-06
-2.36462e-07
-1.50155e-06
-2.26226e-07
-1.39165e-06
-2.15775e-07
-1.28703e-06
-2.0519e-07
-1.18772e-06
-1.9455e-07
-1.0937e-06
-1.83924e-07
-1.00491e-06
-1.73377e-07
-9.21271e-07
-1.62965e-07
-8.42669e-07
-1.52737e-07
-7.68972e-07
-1.42735e-07
-7.00031e-07
-1.32995e-07
-6.35678e-07
-1.23543e-07
-5.75735e-07
-1.14404e-07
-5.20006e-07
-1.0559e-07
-4.6826e-07
-9.71166e-08
-4.20233e-07
-8.90207e-08
-3.7571e-07
-8.14571e-08
-3.34897e-07
-7.47696e-08
-2.98562e-07
-6.9048e-08
-2.67056e-07
-6.34712e-08
-2.37774e-07
-5.71643e-08
-2.11557e-07
-5.12375e-08
-1.88983e-07
-4.53836e-08
-1.67785e-07
-3.97427e-08
-1.49128e-07
-3.45835e-08
-1.32841e-07
-2.99585e-08
-1.18637e-07
-2.57944e-08
-1.06653e-07
-2.20024e-08
-9.77092e-08
-1.83316e-08
-9.03426e-08
-1.47132e-08
-8.37047e-08
-1.11518e-08
-7.8426e-08
-7.74095e-09
-7.41681e-08
-4.86e-09
-7.09973e-08
-2.59988e-09
-6.89804e-08
-8.09908e-10
-6.78037e-08
6.19276e-10
-6.74691e-08
2.17396e-09
-6.77283e-08
3.39153e-09
-6.84489e-08
4.22392e-09
-6.95463e-08
4.69087e-09
-7.09615e-08
4.87104e-09
-7.26546e-08
4.91676e-09
-7.45574e-08
5.0315e-09
-7.65569e-08
5.27876e-09
-7.85468e-08
5.47642e-09
-8.04749e-08
5.45277e-09
-8.23066e-08
5.22879e-09
-8.40042e-08
4.88578e-09
-8.55391e-08
4.47298e-09
-8.68867e-08
4.00804e-09
-8.80295e-08
3.47342e-09
-8.89782e-08
2.82694e-09
-8.97854e-08
2.06795e-09
-9.05175e-08
1.34272e-09
-9.11844e-08
9.07796e-10
-9.17242e-08
8.32001e-10
-9.20848e-08
8.19217e-10
-9.22576e-08
6.06832e-10
-9.22343e-08
2.22557e-10
-9.20352e-08
-1.76293e-10
-9.16728e-08
-6.00173e-10
-9.11187e-08
-1.01958e-09
-9.03805e-08
-1.45216e-09
-8.9479e-08
-1.95681e-09
-8.84576e-08
-2.56742e-09
-8.73732e-08
-3.14985e-09
-8.62574e-08
-3.41401e-09
-8.50983e-08
-3.21493e-09
-8.38718e-08
-2.88096e-09
-8.25893e-08
-2.76798e-09
-8.12454e-08
-2.85895e-09
-7.98179e-08
-3.02381e-09
-7.83051e-08
-3.19884e-09
-7.67096e-08
-3.38806e-09
-7.50392e-08
-3.6537e-09
-7.33204e-08
-4.05617e-09
-7.16037e-08
-4.50789e-09
-6.99395e-08
-4.6843e-09
-6.83342e-08
-4.32946e-09
-6.67492e-08
-3.76571e-09
-6.51758e-08
-3.45373e-09
-6.36019e-08
-3.40443e-09
-6.19969e-08
-3.45439e-09
-6.03578e-08
-3.51724e-09
-5.86858e-08
-3.58653e-09
-5.698e-08
-3.72401e-09
-5.52529e-08
-4.01661e-09
-5.35478e-08
-4.42628e-09
-5.19355e-08
-4.61292e-09
-5.04571e-08
-4.18554e-09
-4.90742e-08
-3.4235e-09
-4.7767e-08
-2.91169e-09
-4.65236e-08
-2.71206e-09
-4.53162e-08
-2.61371e-09
-4.41565e-08
-2.49746e-09
-4.30623e-08
-2.34216e-09
-4.20481e-08
-2.19937e-09
-4.11354e-08
-2.16745e-09
-4.03806e-08
-2.25437e-09
-3.99054e-08
-2.10827e-09
-3.98619e-08
-1.19094e-09
-4.03219e-08
3.4137e-10
-4.13453e-08
1.85941e-09
-4.30293e-08
3.31195e-09
-4.55006e-08
4.99016e-09
-4.89485e-08
7.12827e-09
-5.34361e-08
9.88781e-09
-5.85938e-08
1.28398e-08
-6.32578e-08
1.35098e-08
-6.52758e-08
7.68076e-09
-6.2999e-08
-6.73563e-09
-2.46739e-08
-5.74822e-08
2.61636e-07
-9.8278e-07
3.35371e-07
-8.18582e-07
3.46862e-07
-6.00823e-07
3.22367e-07
-3.989e-07
2.65034e-07
-2.059e-07
1.73769e-07
-1.99535e-08
4.71306e-08
1.57619e-07
-1.14936e-07
3.24448e-07
-3.12634e-07
4.75145e-07
-5.49034e-07
6.04573e-07
-8.3165e-07
7.12486e-07
-1.16889e-06
8.05304e-07
-1.56268e-06
8.91905e-07
-2.00213e-06
9.76768e-07
-2.46442e-06
1.05628e-06
-2.9221e-06
1.12144e-06
-3.35022e-06
1.16339e-06
-3.73105e-06
1.17717e-06
-4.05637e-06
1.16242e-06
-4.32612e-06
1.12231e-06
-4.54556e-06
1.06196e-06
-4.72272e-06
9.87211e-07
-4.86642e-06
9.03656e-07
-4.98494e-06
8.16067e-07
-5.08511e-06
7.28119e-07
-5.17202e-06
6.42373e-07
-5.249e-06
5.60418e-07
-5.31793e-06
4.83078e-07
-5.37951e-06
4.1063e-07
-5.43368e-06
3.4299e-07
-5.47992e-06
2.79864e-07
-5.51746e-06
2.20855e-07
-5.54551e-06
1.65538e-07
-5.56328e-06
1.13507e-07
-5.57004e-06
6.44069e-08
-5.56506e-06
1.79006e-08
-5.54797e-06
-2.62707e-08
-5.51832e-06
-6.84204e-08
-5.47643e-06
-1.08617e-07
-5.42269e-06
-1.46838e-07
-5.35749e-06
-1.8306e-07
-5.28133e-06
-2.17253e-07
-5.19475e-06
-2.49385e-07
-5.09835e-06
-2.7942e-07
-4.99278e-06
-3.0732e-07
-4.87874e-06
-3.33044e-07
-4.75693e-06
-3.56556e-07
-4.62809e-06
-3.77821e-07
-4.49295e-06
-3.96816e-07
-4.35229e-06
-4.13522e-07
-4.20685e-06
-4.27935e-07
-4.0574e-06
-4.4006e-07
-3.90469e-06
-4.49912e-07
-3.74947e-06
-4.57523e-07
-3.59246e-06
-4.62934e-07
-3.4344e-06
-4.66198e-07
-3.27596e-06
-4.67382e-07
-3.11782e-06
-4.66564e-07
-2.96063e-06
-4.63834e-07
-2.80498e-06
-4.59293e-07
-2.65145e-06
-4.53051e-07
-2.50057e-06
-4.4523e-07
-2.35283e-06
-4.35957e-07
-2.20869e-06
-4.25369e-07
-2.06852e-06
-4.13606e-07
-1.93268e-06
-4.00814e-07
-1.80147e-06
-3.87141e-07
-1.67513e-06
-3.72732e-07
-1.55386e-06
-3.57734e-07
-1.4378e-06
-3.42289e-07
-1.32704e-06
-3.26533e-07
-1.22163e-06
-3.10596e-07
-1.12159e-06
-2.94597e-07
-1.02686e-06
-2.78649e-07
-9.3739e-07
-2.6285e-07
-8.53065e-07
-2.4729e-07
-7.73756e-07
-2.32046e-07
-6.99305e-07
-2.17186e-07
-6.29537e-07
-2.02762e-07
-5.64259e-07
-1.88821e-07
-5.03265e-07
-1.75398e-07
-4.46334e-07
-1.62521e-07
-3.93235e-07
-1.50216e-07
-3.43732e-07
-1.38523e-07
-2.9767e-07
-1.27519e-07
-2.55135e-07
-1.17304e-07
-2.16363e-07
-1.0782e-07
-1.81122e-07
-9.87124e-08
-1.48575e-07
-8.97113e-08
-1.18785e-07
-8.10272e-08
-9.15246e-08
-7.26442e-08
-6.65533e-08
-6.4714e-08
-4.39075e-08
-5.72293e-08
-2.35809e-08
-5.02851e-08
-5.54489e-09
-4.38304e-08
1.02623e-08
-3.78096e-08
2.40664e-08
-3.21357e-08
3.6188e-08
-2.68348e-08
4.69148e-08
-2.18786e-08
5.64673e-08
-1.72934e-08
6.498e-08
-1.33728e-08
7.24081e-08
-1.0028e-08
7.87224e-08
-7.12414e-09
8.38996e-08
-4.55796e-09
8.82774e-08
-2.20385e-09
9.18917e-08
-2.2276e-10
9.48101e-08
1.30555e-09
9.70697e-08
2.43121e-09
9.87172e-08
3.22357e-09
9.98216e-08
3.81239e-09
1.00512e-07
4.34145e-09
1.00952e-07
4.8383e-09
1.01258e-07
5.17019e-09
1.01476e-07
5.2352e-09
1.01637e-07
5.06783e-09
1.01769e-07
4.75345e-09
1.01894e-07
4.34851e-09
1.02023e-07
3.87858e-09
1.02151e-07
3.34544e-09
1.02236e-07
2.74235e-09
1.0221e-07
2.09361e-09
1.02045e-07
1.50775e-09
1.01818e-07
1.13443e-09
1.01658e-07
9.91945e-10
1.01632e-07
8.45575e-10
1.01736e-07
5.02829e-10
1.0195e-07
8.39748e-12
1.02299e-07
-5.2468e-10
1.02756e-07
-1.05744e-09
1.03312e-07
-1.57606e-09
1.03952e-07
-2.09185e-09
1.04628e-07
-2.63267e-09
1.05259e-07
-3.19836e-09
1.05795e-07
-3.68606e-09
1.0628e-07
-3.89925e-09
1.06832e-07
-3.76671e-09
1.07522e-07
-3.57095e-09
1.08342e-07
-3.58822e-09
1.09261e-07
-3.778e-09
1.10257e-07
-4.01939e-09
1.11313e-07
-4.25448e-09
1.1241e-07
-4.48532e-09
1.13507e-07
-4.75088e-09
1.14527e-07
-5.07607e-09
1.15398e-07
-5.37871e-09
1.16137e-07
-5.42354e-09
1.16864e-07
-5.05695e-09
1.17685e-07
-4.58667e-09
1.18612e-07
-4.3802e-09
1.19609e-07
-4.40167e-09
1.20652e-07
-4.49703e-09
1.21724e-07
-4.58909e-09
1.22811e-07
-4.67435e-09
1.23885e-07
-4.79717e-09
1.24872e-07
-5.00386e-09
1.25684e-07
-5.23854e-09
1.26304e-07
-5.23307e-09
1.2684e-07
-4.72112e-09
1.27429e-07
-4.01241e-09
1.28105e-07
-3.58819e-09
1.28822e-07
-3.42904e-09
1.29542e-07
-3.33386e-09
1.3024e-07
-3.19537e-09
1.30896e-07
-2.9974e-09
1.31475e-07
-2.77923e-09
1.31904e-07
-2.59615e-09
1.32062e-07
-2.41261e-09
1.31873e-07
-1.91937e-09
1.3138e-07
-6.97832e-10
1.3069e-07
1.03179e-09
1.29822e-07
2.72761e-09
1.28698e-07
4.43585e-09
1.27243e-07
6.44541e-09
1.25454e-07
8.91665e-09
1.23541e-07
1.18011e-08
1.21998e-07
1.43828e-08
1.21228e-07
1.42802e-08
1.20901e-07
8.00696e-09
1.19896e-07
-5.73018e-09
-2.18366e-08
1.17059e-07
-1.45634e-08
-9.68216e-07
-1.1172e-07
-7.21425e-07
-2.20771e-07
-4.91772e-07
-3.47812e-07
-2.71859e-07
-4.9903e-07
-5.46819e-08
-6.78078e-07
1.59095e-07
-8.87555e-07
3.67095e-07
-1.12727e-06
5.64165e-07
-1.39755e-06
7.45424e-07
-1.70054e-06
9.07566e-07
-2.03808e-06
1.05002e-06
-2.40651e-06
1.17373e-06
-2.79283e-06
1.27823e-06
-3.17603e-06
1.35997e-06
-3.53357e-06
1.41382e-06
-3.84835e-06
1.43622e-06
-4.11224e-06
1.42728e-06
-4.32572e-06
1.39065e-06
-4.4953e-06
1.332e-06
-4.63046e-06
1.25747e-06
-4.7412e-06
1.1727e-06
-4.83629e-06
1.0823e-06
-4.92238e-06
9.89748e-07
-5.00379e-06
8.9747e-07
-5.08269e-06
8.07025e-07
-5.15964e-06
7.19324e-07
-5.23405e-06
6.34824e-07
-5.30465e-06
5.53679e-07
-5.36988e-06
4.75859e-07
-5.42812e-06
4.01231e-07
-5.47787e-06
3.29613e-07
-5.51783e-06
2.60813e-07
-5.54694e-06
1.9465e-07
-5.56441e-06
1.30974e-07
-5.56966e-06
6.96649e-08
-5.5624e-06
1.06342e-08
-5.54248e-06
-4.61932e-08
-5.51005e-06
-1.00846e-07
-5.46539e-06
-1.53278e-07
-5.40883e-06
-2.03397e-07
-5.34078e-06
-2.51106e-07
-5.26173e-06
-2.96304e-07
-5.17222e-06
-3.38895e-07
-5.07286e-06
-3.78784e-07
-4.9643e-06
-4.15884e-07
-4.84722e-06
-4.50117e-07
-4.72237e-06
-4.81414e-07
-4.59047e-06
-5.0972e-07
-4.45229e-06
-5.34995e-07
-4.3086e-06
-5.57212e-07
-4.16017e-06
-5.76362e-07
-4.00778e-06
-5.92453e-07
-3.85218e-06
-6.05506e-07
-3.69414e-06
-6.15563e-07
-3.5344e-06
-6.22677e-07
-3.37368e-06
-6.26923e-07
-3.21267e-06
-6.28386e-07
-3.05206e-06
-6.27171e-07
-2.8925e-06
-6.23394e-07
-2.73461e-06
-6.1719e-07
-2.57896e-06
-6.08703e-07
-2.42609e-06
-5.98093e-07
-2.27652e-06
-5.85531e-07
-2.13069e-06
-5.71199e-07
-1.98901e-06
-5.55284e-07
-1.85184e-06
-5.37983e-07
-1.71948e-06
-5.19496e-07
-1.59219e-06
-5.00023e-07
-1.47016e-06
-4.79764e-07
-1.35354e-06
-4.58913e-07
-1.24241e-06
-4.3766e-07
-1.13683e-06
-4.16184e-07
-1.03677e-06
-3.94651e-07
-9.42205e-07
-3.73216e-07
-8.53037e-07
-3.52018e-07
-7.69146e-07
-3.31181e-07
-6.90381e-07
-3.10811e-07
-6.16564e-07
-2.91002e-07
-5.47497e-07
-2.71829e-07
-4.82964e-07
-2.53354e-07
-4.22737e-07
-2.35626e-07
-3.66576e-07
-2.18681e-07
-3.14242e-07
-2.02551e-07
-2.65503e-07
-1.87261e-07
-2.2018e-07
-1.72843e-07
-1.78177e-07
-1.59307e-07
-1.39414e-07
-1.46583e-07
-1.03633e-07
-1.34494e-07
-7.04425e-08
-1.22902e-07
-3.96535e-08
-1.11816e-07
-1.10511e-08
-1.01247e-07
1.54642e-08
-9.12293e-08
3.99963e-08
-8.17613e-08
6.25812e-08
-7.287e-08
8.32757e-08
-6.45248e-08
1.02155e-07
-5.66893e-08
1.19355e-07
-4.93354e-08
1.34986e-07
-4.24657e-08
1.49182e-07
-3.60744e-08
1.62114e-07
-3.02255e-08
1.73809e-07
-2.50682e-08
1.84294e-07
-2.05122e-08
1.93605e-07
-1.64356e-08
2.01804e-07
-1.27574e-08
2.09046e-07
-9.44525e-09
2.15394e-07
-6.57136e-09
2.20886e-07
-4.18634e-09
2.25578e-07
-2.26007e-09
2.29521e-07
-7.19981e-10
2.328e-07
5.33205e-10
2.35559e-07
1.58287e-09
2.3792e-07
2.4769e-09
2.3998e-07
3.11021e-09
2.41779e-07
3.43612e-09