/*--------------------------------*- C++ -*----------------------------------*\
  =========                 |
  \\      /  F ield         | OpenFOAM: The Open Source CFD Toolbox
   \\    /   O peration     | Website:  https://openfoam.org
    \\  /    A nd           | Version:  9
     \\/     M anipulation  |
\*---------------------------------------------------------------------------*/
FoamFile
{
    format      ascii;
    class       volVectorField;
    location    "0.02";
    object      U;
}
// * * * * * * * * * * * * * * * * * * * * * * * * * * * * * * * * * * * * * //

dimensions      [0 1 -1 0 0 0 0];

internalField   nonuniform List<vector> 
12225
(
(0.948521 -0.257894 0)
(0.892682 -0.05376 0)
(0.753364 0.00904112 0)
(0.622729 0.0145045 0)
(0.543949 0.00928378 0)
(0.501368 0.00513538 0)
(0.476342 0.00356369 0)
(0.457602 0.00402918 0)
(0.435782 0.0060622 0)
(0.403304 0.00909744 0)
(0.356371 0.0122149 0)
(0.296064 0.0143045 0)
(0.228869 0.0143641 0)
(0.164014 0.0117917 0)
(0.117762 0.00483449 0)
(0.102416 -0.0117844 0)
(0.218669 -0.0654958 0)
(0.294046 0.0114151 0)
(1.01711 0.0937593 0)
(0.984693 0.076829 0)
(0.922033 0.0452832 0)
(0.839011 0.0335506 0)
(0.767384 0.0235887 0)
(0.718864 0.0146035 0)
(0.69047 0.00921694 0)
(0.674602 0.00809722 0)
(0.661573 0.0111032 0)
(0.641671 0.0175099 0)
(0.607016 0.0257198 0)
(0.553179 0.0332876 0)
(0.481578 0.03733 0)
(0.399652 0.0350534 0)
(0.325884 0.0219582 0)
(0.272608 -0.0162842 0)
(0.319719 -0.0991997 0)
(0.213517 0.0619021 0)
(0.997439 0.0134285 0)
(0.986177 0.0432925 0)
(0.955399 0.0518768 0)
(0.899582 0.0485425 0)
(0.843339 0.0370713 0)
(0.801932 0.0239768 0)
(0.777658 0.0145778 0)
(0.766106 0.0111404 0)
(0.75948 0.0142784 0)
(0.749233 0.0235079 0)
(0.727657 0.0370376 0)
(0.688769 0.0515747 0)
(0.630139 0.0625047 0)
(0.554055 0.0643501 0)
(0.473158 0.0495618 0)
(0.394297 0.000625055 0)
(0.379258 -0.090207 0)
(0.166851 0.0915936 0)
(0.998719 0.00880515 0)
(0.989501 0.0454554 0)
(0.967202 0.0617893 0)
(0.925317 0.0613124 0)
(0.881455 0.0489921 0)
(0.848273 0.032528 0)
(0.82922 0.0192796 0)
(0.821783 0.0132823 0)
(0.819915 0.0160595 0)
(0.816512 0.0274699 0)
(0.804824 0.0457443 0)
(0.778893 0.0672341 0)
(0.73445 0.0862887 0)
(0.669642 0.0953239 0)
(0.590112 0.0840941 0)
(0.495781 0.0338832 0)
(0.432965 -0.0517339 0)
(0.164085 0.123873 0)
(0.999474 0.0123786 0)
(0.99053 0.0507656 0)
(0.971578 0.0706067 0)
(0.938675 0.0721843 0)
(0.9045 0.0591893 0)
(0.87878 0.039763 0)
(0.864795 0.0228937 0)
(0.861021 0.0142285 0)
(0.862764 0.0162254 0)
(0.864219 0.0291307 0)
(0.859702 0.0513158 0)
(0.84383 0.0791372 0)
(0.811726 0.106652 0)
(0.758935 0.12524 0)
(0.685109 0.123092 0)
(0.584041 0.0819809 0)
(0.487791 0.0126125 0)
(0.198512 0.168358 0)
(0.999314 0.0150674 0)
(0.990229 0.054798 0)
(0.973176 0.0779712 0)
(0.946669 0.0813605 0)
(0.920104 0.0676345 0)
(0.900785 0.0455136 0)
(0.891352 0.0253002 0)
(0.89072 0.014012 0)
(0.895172 0.0149786 0)
(0.899982 0.0288384 0)
(0.900426 0.0541639 0)
(0.891845 0.0875352 0)
(0.869428 0.123271 0)
(0.827507 0.152777 0)
(0.761638 0.164043 0)
(0.661405 0.140412 0)
(0.546067 0.0945407 0)
(0.267407 0.228376 0)
(0.998996 0.016908 0)
(0.989651 0.0584282 0)
(0.973871 0.0845132 0)
(0.952141 0.089158 0)
(0.931633 0.0744842 0)
(0.917696 0.049823 0)
(0.912189 0.0265282 0)
(0.914152 0.012752 0)
(0.920557 0.0125915 0)
(0.927546 0.027055 0)
(0.931216 0.0549387 0)
(0.927606 0.0931582 0)
(0.912306 0.136622 0)
(0.879445 0.177535 0)
(0.822474 0.204851 0)
(0.729022 0.204182 0)
(0.60795 0.186699 0)
(0.358796 0.303267 0)
(0.998808 0.0187931 0)
(0.989238 0.0622988 0)
(0.974426 0.0905734 0)
(0.956424 0.0958087 0)
(0.940812 0.0799053 0)
(0.93135 0.0527835 0)
(0.929123 0.0266497 0)
(0.933123 0.0105773 0)
(0.940819 0.00930975 0)
(0.949054 0.0241826 0)
(0.95462 0.0542163 0)
(0.954205 0.0967061 0)
(0.943939 0.147302 0)
(0.918379 0.199429 0)
(0.87046 0.243763 0)
(0.787852 0.268623 0)
(0.672126 0.282311 0)
(0.459139 0.38966 0)
(0.998754 0.0209036 0)
(0.989132 0.0664731 0)
(0.975194 0.0962587 0)
(0.960216 0.101459 0)
(0.948603 0.0840325 0)
(0.94282 0.0544953 0)
(0.943233 0.0257613 0)
(0.948717 0.00763124 0)
(0.957107 0.00536415 0)
(0.965834 0.020566 0)
(0.972308 0.0524636 0)
(0.973823 0.0987344 0)
(0.967121 0.155795 0)
(0.947514 0.218425 0)
(0.908462 0.279326 0)
(0.839049 0.329685 0)
(0.736788 0.375026 0)
(0.561018 0.482493 0)
(0.998788 0.0231432 0)
(0.989359 0.070851 0)
(0.976341 0.101596 0)
(0.963904 0.106206 0)
(0.95557 0.086977 0)
(0.952751 0.055067 0)
(0.955184 0.0239843 0)
(0.961606 0.00407685 0)
(0.970146 0.000981849 0)
(0.978755 0.0165044 0)
(0.985423 0.0500407 0)
(0.988039 0.0996241 0)
(0.983999 0.162389 0)
(0.969513 0.234394 0)
(0.939117 0.310316 0)
(0.884006 0.384025 0)
(0.80031 0.459077 0)
(0.662045 0.575129 0)
(0.998869 0.0254267 0)
(0.989891 0.0753336 0)
(0.977924 0.106594 0)
(0.96769 0.110134 0)
(0.962041 0.0888651 0)
(0.96154 0.0546483 0)
(0.965395 0.0214961 0)
(0.97222 0.000132792 0)
(0.980416 -0.00357346 0)
(0.98842 0.0122926 0)
(0.99479 0.0472449 0)
(0.998018 0.0996214 0)
(0.996184 0.16718 0)
(0.986444 0.247081 0)
(0.964618 0.335683 0)
(0.924173 0.429054 0)
(0.861515 0.529575 0)
(0.760516 0.659416 0)
(0.998966 0.0274856 0)
(0.990615 0.0794127 0)
(0.979775 0.110828 0)
(0.971356 0.113033 0)
(0.96772 0.0897347 0)
(0.968815 0.0535034 0)
(0.973459 0.0187416 0)
(0.980202 -0.0036323 0)
(0.987687 -0.0076833 0)
(0.994796 0.00850717 0)
(1.00061 0.0444988 0)
(1.0042 0.0988479 0)
(1.00427 0.169784 0)
(0.998854 0.255281 0)
(0.984953 0.352898 0)
(0.957995 0.460151 0)
(0.915396 0.578806 0)
(0.847846 0.721748 0)
(0.999059 0.0294914 0)
(0.99148 0.0833698 0)
(0.981903 0.114703 0)
(0.975164 0.115355 0)
(0.973204 0.0899779 0)
(0.975477 0.0518869 0)
(0.980501 0.0158093 0)
(0.98681 -0.0072701 0)
(0.99331 -0.0114771 0)
(0.999328 0.00501635 0)
(1.00447 0.0417539 0)
(1.00835 0.097442 0)
(1.01034 0.170675 0)
(1.00926 0.260047 0)
(1.0032 0.363976 0)
(0.989257 0.480871 0)
(0.965851 0.611815 0)
(0.928545 0.764097 0)
(0.99916 0.0316114 0)
(0.992619 0.0875847 0)
(0.984671 0.11855 0)
(0.979765 0.117212 0)
(0.97938 0.0894664 0)
(0.98253 0.0495033 0)
(0.987507 0.0123343 0)
(0.992912 -0.0111498 0)
(0.997996 -0.0153172 0)
(1.0026 0.0014249 0)
(1.00693 0.0385112 0)
(1.01124 0.0947304 0)
(1.01559 0.168972 0)
(1.01967 0.260332 0)
(1.02266 0.367894 0)
(1.02313 0.490646 0)
(1.0203 0.628818 0)
(1.01247 0.785719 0)
(0.999275 0.033749 0)
(0.994058 0.091777 0)
(0.988155 0.122025 0)
(0.985288 0.118313 0)
(0.986355 0.0880628 0)
(0.989998 0.0464403 0)
(0.994405 0.00863962 0)
(0.998378 -0.0147781 0)
(1.00162 -0.0186842 0)
(1.00458 -0.00192218 0)
(1.0081 0.0346993 0)
(1.0131 0.0899445 0)
(1.02042 0.162877 0)
(1.03062 0.252933 0)
(1.04393 0.359652 0)
(1.06018 0.482421 0)
(1.0792 0.620868 0)
(1.10025 0.775709 0)
(0.999418 0.03571 0)
(0.995849 0.0954047 0)
(0.992479 0.124506 0)
(0.991954 0.118191 0)
(0.99441 0.085621 0)
(0.998185 0.0429321 0)
(1.00154 0.00528855 0)
(1.00365 -0.0174234 0)
(1.00482 -0.0209156 0)
(1.00615 -0.00471866 0)
(1.00915 0.0299443 0)
(1.01541 0.0816648 0)
(1.02649 0.149498 0)
(1.04379 0.232977 0)
(1.06858 0.33187 0)
(1.10179 0.445937 0)
(1.14395 0.574928 0)
(1.19461 0.718749 0)
(0.999612 0.0371582 0)
(0.998101 0.0975574 0)
(0.997856 0.124942 0)
(1.00012 0.116084 0)
(1.00408 0.0819159 0)
(1.00784 0.0393309 0)
(1.00995 0.00302914 0)
(1.01018 -0.018241 0)
(1.00953 -0.0214239 0)
(1.0098 -0.00698823 0)
(1.01311 0.0232611 0)
(1.02162 0.0675422 0)
(1.03748 0.124679 0)
(1.06277 0.193967 0)
(1.09957 0.275007 0)
(1.14979 0.367819 0)
(1.21475 0.472953 0)
(1.29471 0.591523 0)
(0.999893 0.0374946 0)
(1.00097 0.0967194 0)
(1.00453 0.12158 0)
(1.01015 0.110652 0)
(1.016 0.0763506 0)
(1.02005 0.0356813 0)
(1.02136 0.00219896 0)
(1.02047 -0.0170795 0)
(1.0191 -0.0207235 0)
(1.01965 -0.0103265 0)
(1.02466 0.0116502 0)
(1.03677 0.0429413 0)
(1.05844 0.0817576 0)
(1.09188 0.126779 0)
(1.13935 0.177191 0)
(1.20309 0.233004 0)
(1.28481 0.29568 0)
(1.38589 0.368514 0)
(1.00033 0.0357233 0)
(1.00457 0.0905212 0)
(1.01255 0.111701 0)
(1.02209 0.0996325 0)
(1.03034 0.0673539 0)
(1.03545 0.0308831 0)
(1.03716 0.00167466 0)
(1.03665 -0.0156529 0)
(1.03611 -0.0216072 0)
(1.03824 -0.0189924 0)
(1.04572 -0.0109129 0)
(1.06089 -1.50161e-05 0)
(1.08587 0.0114743 0)
(1.1227 0.0217212 0)
(1.17315 0.0294255 0)
(1.23872 0.0343284 0)
(1.32058 0.0381389 0)
(1.42085 0.0452743 0)
(1.00071 0.0319535 0)
(1.00769 0.0798591 0)
(1.01944 0.0971572 0)
(1.03231 0.0852408 0)
(1.04295 0.0565025 0)
(1.04975 0.0252141 0)
(1.05276 0.000621879 0)
(1.05326 -0.0147077 0)
(1.05335 -0.0227669 0)
(1.05545 -0.0271431 0)
(1.06187 -0.0311359 0)
(1.07451 -0.0372275 0)
(1.09478 -0.0472656 0)
(1.12364 -0.0628504 0)
(1.16168 -0.0853939 0)
(1.20937 -0.115608 0)
(1.26705 -0.152662 0)
(1.33656 -0.19312 0)
(1.00095 0.0275577 0)
(1.00989 0.0683784 0)
(1.02432 0.08233 0)
(1.03965 0.0709225 0)
(1.0523 0.0453692 0)
(1.06088 0.0183563 0)
(1.06549 -0.00238135 0)
(1.06721 -0.0155837 0)
(1.06778 -0.0242056 0)
(1.06924 -0.0322948 0)
(1.07349 -0.0430798 0)
(1.08195 -0.0585681 0)
(1.09541 -0.0799545 0)
(1.11406 -0.108154 0)
(1.13756 -0.144058 0)
(1.16534 -0.188388 0)
(1.19672 -0.241115 0)
(1.23232 -0.300456 0)
(1.00113 0.0228233 0)
(1.0116 0.0564198 0)
(1.02821 0.0672823 0)
(1.04561 0.0564618 0)
(1.0601 0.0337469 0)
(1.07042 0.0105065 0)
(1.07658 -0.00659551 0)
(1.07934 -0.0172319 0)
(1.08002 -0.0250802 0)
(1.08025 -0.0345295 0)
(1.08151 -0.0486716 0)
(1.08481 -0.0689623 0)
(1.09047 -0.0958093 0)
(1.09816 -0.129287 0)
(1.10705 -0.169588 0)
(1.11602 -0.217108 0)
(1.12385 -0.272149 0)
(1.13019 -0.334141 0)
(1.00121 0.0180973 0)
(1.01284 0.0446119 0)
(1.03135 0.0526263 0)
(1.05058 0.042343 0)
(1.06666 0.0220874 0)
(1.07839 0.00221677 0)
(1.08563 -0.0113695 0)
(1.08888 -0.0190508 0)
(1.08919 -0.0250503 0)
(1.08786 -0.0339762 0)
(1.08596 -0.0487292 0)
(1.08404 -0.0702235 0)
(1.08206 -0.0981323 0)
(1.07941 -0.131777 0)
(1.07508 -0.170724 0)
(1.06786 -0.215016 0)
(1.05646 -0.26505 0)
(1.04014 -0.321017 0)
(1.00113 0.0135856 0)
(1.01356 0.033242 0)
(1.03387 0.0386535 0)
(1.05478 0.0288952 0)
(1.0721 0.0108974 0)
(1.08457 -0.00577728 0)
(1.09197 -0.0158911 0)
(1.09483 -0.0204305 0)
(1.09422 -0.0239982 0)
(1.09117 -0.0312383 0)
(1.0863 -0.044762 0)
(1.07966 -0.0649844 0)
(1.07082 -0.0910135 0)
(1.05899 -0.121655 0)
(1.04322 -0.156079 0)
(1.02253 -0.194099 0)
(0.995909 -0.236132 0)
(0.96263 -0.282784 0)
(1.00086 0.00953278 0)
(1.01368 0.0223695 0)
(1.03583 0.0254545 0)
(1.05828 0.0163587 0)
(1.07624 0.000681688 0)
(1.08835 -0.0127113 0)
(1.09456 -0.019346 0)
(1.09585 -0.0208149 0)
(1.09362 -0.0218942 0)
(1.08876 -0.0269903 0)
(1.08137 -0.0382607 0)
(1.07083 -0.0556552 0)
(1.05625 -0.0779311 0)
(1.03673 -0.103685 0)
(1.01153 -0.131974 0)
(0.980068 -0.162547 0)
(0.941785 -0.195814 0)
(0.896176 -0.232549 0)
(1.00018 0.00688789 0)
(1.01293 0.0122157 0)
(1.03721 0.0131348 0)
(1.06086 0.00501043 0)
(1.07834 -0.00798021 0)
(1.0884 -0.0177929 0)
(1.09156 -0.0209815 0)
(1.08985 -0.0197465 0)
(1.08527 -0.0187519 0)
(1.0786 -0.0218228 0)
(1.06919 -0.0304705 0)
(1.0557 -0.044218 0)
(1.03671 -0.0617019 0)
(1.01125 -0.081622 0)
(0.978848 -0.103194 0)
(0.939411 -0.126235 0)
(0.892853 -0.151114 0)
(0.838904 -0.178574 0)
(0.998147 0.00708207 0)
(1.01048 0.00332796 0)
(1.03756 0.00212031 0)
(1.0614 -0.00467465 0)
(1.07625 -0.0143856 0)
(1.08166 -0.0202349 0)
(1.07948 -0.0201962 0)
(1.0733 -0.016962 0)
(1.06585 -0.0146777 0)
(1.05747 -0.0162236 0)
(1.04663 -0.022328 0)
(1.03114 -0.0321788 0)
(1.00918 -0.0445207 0)
(0.979779 -0.0584094 0)
(0.942773 -0.0734046 0)
(0.898453 -0.0894605 0)
(0.84709 -0.10685 0)
(0.788558 -0.126119 0)
(0.993258 0.00748549 0)
(1.00523 0.00135289 0)
(1.03481 -0.0046737 0)
(1.05584 -0.0118269 0)
(1.06396 -0.017993 0)
(1.06082 -0.0195742 0)
(1.05073 -0.016799 0)
(1.03909 -0.0125804 0)
(1.02881 -0.00999523 0)
(1.01923 -0.0106649 0)
(1.00763 -0.0145409 0)
(0.991144 -0.0206683 0)
(0.967852 -0.0281097 0)
(0.936966 -0.0364083 0)
(0.898547 -0.0455096 0)
(0.853022 -0.0554954 0)
(0.800753 -0.0664999 0)
(0.741602 -0.0787704 0)
(1.00661 -0.0740056 0)
(1.00786 -0.0551513 0)
(1.02217 -0.0239756 0)
(1.0289 -0.0184172 0)
(1.02153 -0.0187371 0)
(1.00416 -0.0160161 0)
(0.984221 -0.0112773 0)
(0.967722 -0.00716933 0)
(0.955995 -0.00520529 0)
(0.946389 -0.00555877 0)
(0.935023 -0.00755648 0)
(0.918926 -0.0103789 0)
(0.896659 -0.0135841 0)
(0.867867 -0.0171988 0)
(0.832633 -0.0214535 0)
(0.791076 -0.0264888 0)
(0.743245 -0.0323089 0)
(0.688816 -0.0388872 0)
(0.976011 0.215148 0)
(0.992179 0.0549357 0)
(0.948585 0.00255475 0)
(0.887373 -0.0078347 0)
(0.836429 -0.00894637 0)
(0.799758 -0.00662593 0)
(0.776118 -0.00381547 0)
(0.762554 -0.00222615 0)
(0.754394 -0.00207293 0)
(0.747023 -0.00281057 0)
(0.737558 -0.00381762 0)
(0.725047 -0.00476793 0)
(0.70952 -0.00570044 0)
(0.690922 -0.00686746 0)
(0.668686 -0.00850476 0)
(0.641939 -0.0106924 0)
(0.609957 -0.0133639 0)
(0.572198 -0.0162677 0)
(0.186863 -0.292679 4.82588e-21)
(0.446727 -0.493264 -4.21379e-21)
(0.812583 -0.52214 0)
(1.13835 -0.462205 0)
(1.37658 -0.366073 0)
(1.52291 -0.256806 6.02738e-22)
(1.59103 -0.142665 0)
(1.57247 -0.0300152 0)
(1.47435 0.0703783 0)
(1.31995 0.14663 0)
(1.1358 0.19131 -1.57184e-21)
(0.946822 0.203511 0)
(0.770543 0.187101 0)
(0.611208 0.150429 0)
(0.458936 0.108664 0)
(0.296487 0.08407 -2.69549e-21)
(0.105531 0.10011 0)
(-0.131774 0.165029 0)
(-0.428288 0.250282 0)
(-0.774275 0.330239 0)
(-1.15461 0.392414 0)
(-1.55382 0.432733 0)
(-1.95757 0.451304 0)
(-2.35351 0.450508 3.38642e-21)
(-2.73172 0.4339 -4.50612e-21)
(-3.08477 0.405444 5.60616e-21)
(-3.4076 0.368947 6.66029e-21)
(-3.69717 0.327714 0)
(-3.95213 0.284408 0)
(-4.17246 0.241041 -9.38754e-21)
(-4.35902 0.199037 -1.01264e-20)
(-4.51328 0.159338 0)
(-4.63705 0.122543 0)
(-4.73234 0.0890442 -1.18214e-20)
(-4.80118 0.0591216 0)
(-4.84558 0.0330602 0)
(-4.86696 0.0111988 1.27974e-20)
(-4.86685 -0.00641295 0)
(-4.85216 -0.0203246 1.30255e-20)
(-4.82329 -0.0320522 2.60575e-20)
(-4.78194 -0.0423247 0)
(-4.72913 -0.0515446 0)
(-4.66581 -0.0599103 0)
(-4.59275 -0.0675259 0)
(-4.51067 -0.0744463 0)
(-4.42027 -0.0807014 2.34783e-20)
(-4.32223 -0.0863082 2.26877e-20)
(-4.21724 -0.0912778 2.18169e-20)
(-4.10598 -0.0956188 0)
(-3.98914 -0.0993396 -1.98705e-20)
(-3.86741 -0.10245 0)
(-3.74149 -0.10496 1.77116e-20)
(-3.61205 -0.106885 1.65753e-20)
(-3.47979 -0.108239 0)
(-3.34538 -0.109042 0)
(-3.20946 -0.109315 0)
(-3.07269 -0.109081 1.18596e-20)
(-2.93567 -0.108367 0)
(-2.79901 -0.1072 0)
(-2.66326 -0.105612 0)
(-2.52896 -0.103635 0)
(-2.39661 -0.1013 0)
(-2.26667 -0.0986445 0)
(-2.13956 -0.0957014 0)
(-2.01566 -0.0925067 0)
(-1.89531 -0.0890953 -2.36104e-21)
(-1.77881 -0.0855019 0)
(-1.66641 -0.0817601 0)
(-1.55833 -0.0779023 7.15363e-23)
(-1.45473 -0.0739595 -5.69767e-22)
(-1.35575 -0.0699606 0)
(-1.2615 -0.0659327 1.66825e-21)
(-1.17201 -0.0619007 -2.12718e-21)
(-1.08734 -0.0578873 0)
(-1.00747 -0.0539128 2.87281e-21)
(-0.93239 -0.0499956 0)
(-0.86204 -0.0461516 0)
(-0.796355 -0.042395 -3.5985e-21)
(-0.735249 -0.0387381 0)
(-0.678624 -0.0351909 3.85647e-21)
(-0.626371 -0.0317588 0)
(-0.578377 -0.0284315 -3.96571e-21)
(-0.534517 -0.0251709 -3.97337e-21)
(-0.494718 -0.0219581 -3.95418e-21)
(-0.459007 -0.0191924 -7.82118e-21)
(-0.42674 -0.0186262 7.68952e-21)
(-0.396029 -0.0216997 0)
(-0.36551 -0.0258923 0)
(-0.337688 -0.0222972 0)
(-0.314118 -0.0201723 6.72497e-21)
(-0.290685 -0.019795 6.32539e-21)
(-0.272343 -0.01401 -6.01882e-21)
(-0.256284 -0.0114655 0)
(-0.242703 -0.00956169 5.52767e-21)
(-0.231032 -0.00790531 5.33612e-21)
(-0.22128 -0.00702249 5.26335e-21)
(-0.212458 -0.00821691 0)
(-0.203918 -0.00636507 0)
(-0.199125 -0.00281056 0)
(-0.195722 -0.00070871 4.11611e-21)
(-0.194789 0.00121742 0)
(-0.195101 0.00186157 0)
(-0.196174 0.00207993 -3.53305e-21)
(-0.197777 0.00228062 0)
(-0.200028 0.00268571 0)
(-0.202967 0.00308902 -3.03154e-21)
(-0.206403 0.00325105 0)
(-0.210064 0.00312777 0)
(-0.213697 0.00279151 2.61939e-21)
(-0.217099 0.00240856 2.50218e-21)
(-0.220303 0.00224628 0)
(-0.223578 0.00240752 -2.29637e-21)
(-0.227101 0.00265917 0)
(-0.230766 0.00273533 2.12456e-21)
(-0.234372 0.00264078 0)
(-0.237819 0.0024797 1.9837e-21)
(-0.241048 0.00229196 1.92384e-21)
(-0.244031 0.0020842 0)
(-0.246744 0.00181968 0)
(-0.249115 0.00141875 0)
(-0.250968 0.000848311 0)
(-0.252125 0.00027317 0)
(-0.252706 1.95877e-05 0)
(-0.25322 0.000183521 0)
(-0.253948 0.000460216 1.6373e-21)
(-0.254747 0.000538444 -1.61825e-21)
(-0.255406 0.000449875 0)
(-0.255862 0.000334748 0)
(-0.256077 0.000232214 0)
(-0.25606 0.000111673 0)
(-0.255828 -5.77761e-05 -3.11377e-21)
(-0.255337 -0.00034025 0)
(-0.254432 -0.00076818 3.08774e-21)
(-0.252937 -0.00121448 -3.07904e-21)
(-0.25098 -0.00137941 0)
(-0.249099 -0.00110236 0)
(-0.247676 -0.000670288 0)
(-0.246532 -0.000460629 3.05801e-21)
(-0.24539 -0.00045293 3.05361e-21)
(-0.244196 -0.000486146 0)
(-0.24291 -0.000527289 3.04709e-21)
(-0.241538 -0.000592945 3.04464e-21)
(-0.240048 -0.000747574 -3.04252e-21)
(-0.238297 -0.00105586 0)
(-0.236055 -0.00144629 0)
(-0.233339 -0.00163342 -3.04083e-21)
(-0.230699 -0.00137607 0)
(-0.228657 -0.000896588 0)
(-0.227058 -0.000625091 0)
(-0.225538 -0.000579692 0)
(-0.22404 -0.000580176 3.03573e-21)
(-0.222507 -0.000586845 3.0343e-21)
(-0.220947 -0.00060574 0)
(-0.219345 -0.000690193 3.0316e-21)
(-0.217582 -0.000919105 0)
(-0.215392 -0.00127438 0)
(-0.21267 -0.00150393 3.03044e-21)
(-0.209949 -0.00129574 0)
(-0.207936 -0.000786448 3.03085e-21)
(-0.20655 -0.000457003 0)
(-0.205319 -0.000376215 0)
(-0.204202 -0.000338701 3.02588e-21)
(-0.203138 -0.000297236 0)
(-0.202159 -0.000249955 3.02334e-21)
(-0.201284 -0.000239451 0)
(-0.200453 -0.000348849 0)
(-0.199414 -0.0005952 0)
(-0.197982 -0.000768236 -3.02024e-21)
(-0.196675 -0.000529193 0)
(-0.196415 6.15688e-05 3.01949e-21)
(-0.197243 0.000573394 0)
(-0.19884 0.000926211 0)
(-0.201339 0.0013124 0)
(-0.204869 0.00184205 0)
(-0.209808 0.00269692 0)
(-0.216944 0.00384361 0)
(-0.227193 0.00431809 0)
(-0.238099 0.00241754 -5.80933e-21)
(-0.240144 -0.00306758 0)
(-0.226747 -0.0130882 0)
(0.310931 -1.03773 -9.02952e-21)
(0.508613 -1.25487 7.13857e-21)
(0.737761 -1.05771 0)
(0.889721 -0.78303 -7.71287e-22)
(0.968019 -0.510643 0)
(0.990177 -0.254247 -5.2913e-22)
(0.960196 -0.0161974 -1.281e-21)
(0.897891 0.193073 -1.01518e-21)
(0.801929 0.362472 0)
(0.664496 0.480025 9.31602e-22)
(0.484895 0.538893 1.37832e-21)
(0.265199 0.547423 0)
(0.00683095 0.534564 0)
(-0.292817 0.542527 0)
(-0.640291 0.59775 0)
(-1.03634 0.697936 1.6901e-21)
(-1.46847 0.821502 0)
(-1.91461 0.940655 -2.10899e-21)
(-2.35498 1.03253 0)
(-2.77428 1.08598 0)
(-3.16188 1.09929 -1.45941e-21)
(-3.51062 1.07651 0)
(-3.81656 1.02463 4.52141e-21)
(-4.07872 0.951618 -2.23449e-21)
(-4.29856 0.865162 3.07249e-21)
(-4.47934 0.771875 -3.9352e-21)
(-4.62535 0.676968 -4.79362e-21)
(-4.74132 0.5842 0)
(-4.83187 0.496026 0)
(-4.90116 0.413838 7.11502e-21)
(-4.95281 0.33823 -8.9284e-21)
(-4.98976 0.26924 0)
(-5.01434 0.206564 0)
(-5.02839 0.149745 9.19501e-21)
(-5.03332 0.0983462 0)
(-5.03021 0.0520733 0)
(-5.02001 0.0108002 -9.94333e-21)
(-5.00324 -0.025671 0)
(-4.97573 -0.0578761 1.07552e-20)
(-4.93771 -0.0867748 -2.00302e-20)
(-4.88911 -0.112951 0)
(-4.83018 -0.136812 0)
(-4.76134 -0.158594 -3.98385e-20)
(-4.68314 -0.17844 -3.89475e-20)
(-4.59617 -0.196434 -3.79039e-20)
(-4.50103 -0.212631 1.91134e-20)
(-4.39839 -0.227069 -1.6948e-20)
(-4.28888 -0.239776 -5.0235e-20)
(-4.17317 -0.25078 3.24897e-20)
(-4.05195 -0.260112 1.46792e-20)
(-3.92589 -0.267805 0)
(-3.79567 -0.273899 -1.2999e-20)
(-3.66197 -0.278438 1.36496e-20)
(-3.52547 -0.281474 0)
(-3.38684 -0.283068 0)
(-3.24674 -0.283283 0)
(-3.10579 -0.282191 -8.6008e-21)
(-2.96463 -0.27987 0)
(-2.82383 -0.276401 1.51295e-20)
(-2.68397 -0.271873 0)
(-2.54559 -0.266376 1.17795e-20)
(-2.40918 -0.260003 0)
(-2.27521 -0.25285 -8.64502e-21)
(-2.14411 -0.245015 0)
(-2.01626 -0.236593 5.77599e-21)
(-1.892 -0.227681 -2.73858e-21)
(-1.77163 -0.218373 0)
(-1.6554 -0.208758 -2.04617e-21)
(-1.54352 -0.198924 -5.23834e-23)
(-1.43615 -0.188952 4.18807e-22)
(-1.33343 -0.178919 0)
(-1.23541 -0.168894 5.34047e-22)
(-1.14216 -0.15894 1.58636e-21)
(-1.05368 -0.149114 0)
(-0.969941 -0.139466 -2.16882e-21)
(-0.890887 -0.130037 4.29739e-21)
(-0.816438 -0.120863 0)
(-0.74649 -0.111974 2.77781e-21)
(-0.680921 -0.10339 0)
(-0.619593 -0.09513 -8.72871e-21)
(-0.562355 -0.0872033 0)
(-0.509045 -0.0796131 9.22786e-21)
(-0.459468 -0.0723577 3.21193e-21)
(-0.413367 -0.0654598 -2.98863e-21)
(-0.37052 -0.0590333 -6.0187e-21)
(-0.331033 -0.0532969 6.01448e-21)
(-0.295284 -0.0482521 0)
(-0.263604 -0.0431073 0)
(-0.236013 -0.037722 0)
(-0.209443 -0.0331506 -1.75863e-20)
(-0.187553 -0.028379 -5.69284e-21)
(-0.166973 -0.0244809 5.50672e-21)
(-0.148385 -0.0208942 0)
(-0.13213 -0.0177383 4.9555e-21)
(-0.11804 -0.0149358 -4.88951e-21)
(-0.105556 -0.0124674 -4.73668e-21)
(-0.0956825 -0.0098572 0)
(-0.0887379 -0.00754441 0)
(-0.081917 -0.00540647 0)
(-0.0763903 -0.00324618 -3.83425e-21)
(-0.0720184 -0.00157136 0)
(-0.0685819 -0.000281268 6.91388e-21)
(-0.0661976 0.000801875 9.91555e-21)
(-0.0647505 0.00176362 -6.28482e-21)
(-0.0641366 0.00259529 0)
(-0.0642268 0.00326749 -2.83657e-21)
(-0.0647937 0.00368785 0)
(-0.0657456 0.003861 -5.20151e-21)
(-0.0670295 0.00383702 2.47121e-21)
(-0.0685778 0.0037215 2.36618e-21)
(-0.0703572 0.00367525 0)
(-0.0723353 0.0037606 6.58401e-21)
(-0.0743904 0.00383995 -4.21729e-21)
(-0.0763686 0.00377952 -2.04126e-21)
(-0.078253 0.00359674 0)
(-0.0800429 0.00334697 -1.90984e-21)
(-0.0816956 0.00306079 -5.54947e-21)
(-0.0831839 0.0027513 0)
(-0.0844899 0.00240714 -3.50828e-21)
(-0.0856083 0.00199078 -3.42977e-21)
(-0.0865523 0.00148369 -3.36059e-21)
(-0.0873605 0.000976632 0)
(-0.0881111 0.000666099 0)
(-0.0888265 0.000618037 0)
(-0.089448 0.000624344 1.57883e-21)
(-0.0898148 0.000507614 1.56547e-21)
(-0.0899754 0.000298266 0)
(-0.0899786 5.04326e-05 3.06868e-21)
(-0.0898189 -0.000181403 3.04581e-21)
(-0.089484 -0.000403365 0)
(-0.0889662 -0.00063293 3.01426e-21)
(-0.0882822 -0.000903577 5.99274e-21)
(-0.0874566 -0.00123793 -2.98916e-21)
(-0.0865089 -0.00157142 -2.97177e-21)
(-0.0854785 -0.00171867 0)
(-0.0844757 -0.00157947 0)
(-0.0835006 -0.00136911 0)
(-0.0823704 -0.00130295 -2.95818e-21)
(-0.0811585 -0.00134189 2.94729e-21)
(-0.0798977 -0.00141187 5.89377e-21)
(-0.0785494 -0.00148501 -2.94732e-21)
(-0.0771157 -0.00156277 2.93802e-21)
(-0.0756059 -0.00167945 2.94267e-21)
(-0.0740347 -0.00187564 0)
(-0.0724065 -0.00211363 0)
(-0.0707477 -0.0022099 -2.9323e-21)
(-0.0691992 -0.00200814 0)
(-0.0678129 -0.00169983 0)
(-0.0663314 -0.00154004 5.86682e-21)
(-0.064819 -0.00150706 0)
(-0.0633187 -0.0015167 2.92638e-21)
(-0.0617788 -0.00153242 -2.93078e-21)
(-0.0602022 -0.00154972 0)
(-0.0585935 -0.00159833 2.92178e-21)
(-0.0569608 -0.00172674 0)
(-0.055299 -0.00192724 0)
(-0.0536167 -0.00202929 -2.92521e-21)
(-0.0520818 -0.00181909 5.8452e-21)
(-0.0508387 -0.00144649 -2.92404e-21)
(-0.0495597 -0.00121034 0)
(-0.0482983 -0.00111661 0)
(-0.0471238 -0.00106486 2.91398e-21)
(-0.0459833 -0.00100752 0)
(-0.0448984 -0.000933797 2.91172e-21)
(-0.0438901 -0.000866957 0)
(-0.0429841 -0.000856185 0)
(-0.0421907 -0.000914057 0)
(-0.0415303 -0.000889234 2.91187e-21)
(-0.0412352 -0.000523471 0)
(-0.0416247 9.37344e-05 -2.91008e-21)
(-0.0424847 0.000687499 0)
(-0.0438953 0.00124758 0)
(-0.0461062 0.00188246 5.79628e-21)
(-0.0492277 0.00268404 -5.78295e-21)
(-0.0534309 0.00377042 0)
(-0.0587365 0.00508643 0)
(-0.0647785 0.00564095 0)
(-0.0697417 0.00356021 1.6851e-20)
(-0.0691234 -0.00208426 0)
(-0.0688921 -0.00911845 -1.10606e-20)
(0.156665 -1.77303 2.55965e-22)
(0.274516 -1.61508 -6.33454e-21)
(0.303303 -1.18588 0)
(0.300452 -0.812522 9.42052e-22)
(0.266338 -0.474751 0)
(0.201322 -0.160713 0)
(0.105429 0.130935 5.42768e-23)
(-0.0206001 0.398902 1.00031e-21)
(-0.178494 0.632688 2.97146e-22)
(-0.369967 0.819537 -8.24584e-22)
(-0.600107 0.95777 0)
(-0.876724 1.06456 0)
(-1.20504 1.16726 2.17975e-21)
(-1.58113 1.2849 4.38258e-21)
(-1.98973 1.41583 -3.85616e-21)
(-2.40745 1.54228 0)
(-2.80923 1.64301 -1.35993e-21)
(-3.17474 1.70257 1.57318e-21)
(-3.49245 1.71426 0)
(-3.75934 1.67916 4.90284e-21)
(-3.97832 1.6038 1.16334e-21)
(-4.15572 1.49762 -9.91927e-21)
(-4.2994 1.37083 -3.70631e-21)
(-4.41721 1.23291 0)
(-4.51602 1.09173 1.76143e-20)
(-4.60121 0.953218 2.00398e-20)
(-4.6765 0.821367 0)
(-4.74412 0.698516 2.4489e-20)
(-4.80515 0.585711 0)
(-4.85978 0.483066 2.82875e-20)
(-4.90767 0.390106 1.38131e-20)
(-4.94819 0.306023 0)
(-4.9806 0.229866 0)
(-5.00416 0.16066 0)
(-5.01813 0.0974602 0)
(-5.02185 0.0393712 0)
(-5.01481 -0.014472 0)
(-4.9966 -0.0648574 3.57164e-20)
(-4.96711 -0.112225 -5.27144e-20)
(-4.92671 -0.156473 0)
(-4.87573 -0.197601 0)
(-4.81456 -0.235647 0)
(-4.74365 -0.270669 -1.50141e-21)
(-4.6635 -0.302718 3.15688e-20)
(-4.57466 -0.331835 6.27682e-20)
(-4.47773 -0.358054 -6.07016e-20)
(-4.37333 -0.381407 -2.99285e-20)
(-4.2621 -0.401926 2.73148e-20)
(-4.1447 -0.419647 1.36288e-21)
(-4.0218 -0.434617 2.60516e-20)
(-3.89407 -0.44689 0)
(-3.7622 -0.456532 2.32076e-20)
(-3.62686 -0.463618 1.24188e-21)
(-3.48875 -0.468237 0)
(-3.34851 -0.470486 0)
(-3.20681 -0.470475 -1.72908e-20)
(-3.06429 -0.468322 0)
(-2.92157 -0.464157 0)
(-2.77924 -0.458116 1.39627e-20)
(-2.63788 -0.450342 2.31145e-20)
(-2.49802 -0.440988 -9.27499e-21)
(-2.36018 -0.430208 0)
(-2.22482 -0.418161 6.80284e-21)
(-2.09238 -0.405009 0)
(-1.96325 -0.390913 6.0757e-21)
(-1.83777 -0.376033 3.50696e-21)
(-1.71625 -0.360527 -6.42294e-21)
(-1.59894 -0.344548 -2.89946e-21)
(-1.48606 -0.32824 0)
(-1.37776 -0.311743 1.08586e-21)
(-1.27417 -0.295185 0)
(-1.17535 -0.278686 -3.23029e-21)
(-1.08135 -0.262352 -3.08702e-21)
(-0.992154 -0.246279 -4.22834e-21)
(-0.907726 -0.23055 5.25098e-21)
(-0.827992 -0.215237 -9.6136e-21)
(-0.752852 -0.200397 0)
(-0.68218 -0.186079 0)
(-0.615831 -0.172319 8.25408e-21)
(-0.553642 -0.159144 1.34202e-20)
(-0.495436 -0.146571 0)
(-0.441024 -0.134613 -5.00117e-21)
(-0.390201 -0.123281 0)
(-0.342745 -0.112611 1.51738e-20)
(-0.298461 -0.102697 3.87373e-22)
(-0.25734 -0.0936779 -3.53993e-22)
(-0.219574 -0.0854876 -1.01679e-20)
(-0.185198 -0.0776811 0)
(-0.153747 -0.0698633 1.00284e-20)
(-0.124626 -0.0623785 2.43661e-22)
(-0.0981267 -0.0552273 0)
(-0.0736604 -0.0484537 0)
(-0.051372 -0.0421914 0)
(-0.0312256 -0.036494 -9.16802e-21)
(-0.0131737 -0.0312969 0)
(0.00270842 -0.0265257 0)
(0.0167033 -0.0221141 0)
(0.0287307 -0.0179287 0)
(0.0396615 -0.0139855 0)
(0.0491512 -0.0103929 -7.02475e-21)
(0.0577418 -0.0073977 0)
(0.0653942 -0.00491177 -6.50442e-21)
(0.0719866 -0.0028228 -6.20857e-21)
(0.0775019 -0.000999627 5.92612e-21)
(0.0820882 0.000548745 0)
(0.0859341 0.00180958 5.40025e-21)
(0.08912 0.00272026 0)
(0.0916791 0.00329677 4.9295e-21)
(0.0936336 0.00362094 -4.71698e-21)
(0.0950372 0.00381312 -1.3457e-20)
(0.0959767 0.00400516 0)
(0.0965793 0.00423516 -1.24345e-20)
(0.0969948 0.00437785 -3.94192e-21)
(0.0973478 0.00432583 0)
(0.0976462 0.0041069 -7.44266e-21)
(0.0978942 0.00378948 -7.21983e-21)
(0.0981239 0.00341656 1.05566e-20)
(0.0983566 0.00300492 0)
(0.0985965 0.00254931 3.36226e-21)
(0.0988221 0.00203485 3.28914e-21)
(0.0989814 0.00147713 9.64299e-21)
(0.0990196 0.000970148 0)
(0.0989428 0.000652059 0)
(0.0988356 0.000551395 0)
(0.0988045 0.000474475 3.022e-21)
(0.0989772 0.000261323 0)
(0.0992816 -5.77111e-05 0)
(0.0996822 -0.000420783 -2.95338e-21)
(0.100201 -0.000785367 -2.93175e-21)
(0.100827 -0.00112739 0)
(0.101547 -0.00146351 0)
(0.102334 -0.00182194 -5.76924e-21)
(0.103126 -0.00221033 0)
(0.103854 -0.00255743 5.73055e-21)
(0.104506 -0.002704 5.71297e-21)
(0.105127 -0.00257926 0)
(0.105805 -0.00239201 0)
(0.106718 -0.00235499 -5.68328e-21)
(0.107762 -0.00243974 -6.5692e-24)
(0.108867 -0.00256188 -6.50796e-24)
(0.110041 -0.00268258 0)
(0.111272 -0.00280379 -1.13127e-20)
(0.112534 -0.00295504 0)
(0.113768 -0.00316042 0)
(0.114899 -0.00336949 0)
(0.115895 -0.00341403 5.64528e-21)
(0.116778 -0.00317009 0)
(0.117626 -0.00283685 -1.1278e-20)
(0.118706 -0.00266925 -5.63797e-21)
(0.119897 -0.00264935 0)
(0.121115 -0.00267955 -5.6276e-21)
(0.122372 -0.00271138 0)
(0.123661 -0.00274228 0)
(0.124959 -0.00280143 -1.6836e-20)
(0.126218 -0.00292374 1.12139e-20)
(0.12736 -0.00308305 0)
(0.128327 -0.00311099 1.12084e-20)
(0.12912 -0.00282396 -5.60776e-21)
(0.129775 -0.00239559 0)
(0.130664 -0.00212765 0)
(0.131651 -0.00201977 0)
(0.13262 -0.00195648 -1.67673e-20)
(0.133582 -0.00187671 0)
(0.134518 -0.00177118 -5.58577e-21)
(0.135401 -0.00166386 0)
(0.136179 -0.00159159 0)
(0.136757 -0.00154585 0)
(0.137036 -0.00136139 0)
(0.13696 -0.000788034 0)
(0.136454 6.84418e-05 0)
(0.135923 0.000899817 -1.11428e-20)
(0.13521 0.00171265 0)
(0.134133 0.00265309 -5.56209e-21)
(0.132685 0.00381852 1.66466e-20)
(0.130945 0.00522206 0)
(0.129222 0.00655723 0)
(0.128019 0.00662516 -1.09377e-20)
(0.127362 0.00358015 -1.08339e-20)
(0.128885 -0.00352448 1.07912e-20)
(0.121616 -0.0115263 1.06698e-20)
(-0.0388015 -1.95303 2.16131e-20)
(-0.0396961 -1.4735 1.31718e-20)
(-0.144243 -1.05345 6.73991e-21)
(-0.249372 -0.657543 4.1945e-21)
(-0.371478 -0.274784 0)
(-0.516608 0.0940163 -1.68457e-21)
(-0.68832 0.444074 2.0628e-21)
(-0.887561 0.769017 0)
(-1.11407 1.06154 -2.30806e-22)
(-1.36897 1.31698 0)
(-1.65494 1.5378 -1.54324e-21)
(-1.97229 1.73194 0)
(-2.31386 1.90489 -1.72099e-21)
(-2.66348 2.05302 -3.50721e-21)
(-3.00004 2.16491 3.13343e-21)
(-3.30454 2.22864 0)
(-3.56527 2.23838 1.13938e-21)
(-3.77914 2.19624 0)
(-3.94998 2.11006 0)
(-4.08565 1.99035 -4.23142e-21)
(-4.19533 1.84808 0)
(-4.28769 1.69313 -4.76823e-21)
(-4.3697 1.53352 0)
(-4.44624 1.37514 0)
(-4.52009 1.2219 3.98158e-21)
(-4.59235 1.0761 -1.74572e-20)
(-4.66288 0.9388 -2.29386e-20)
(-4.73074 0.810247 -2.14264e-20)
(-4.79461 0.690183 0)
(-4.853 0.57807 -5.26034e-20)
(-4.90447 0.473258 0)
(-4.94773 0.375081 -3.02759e-20)
(-4.98172 0.282927 0)
(-5.00559 0.196267 0)
(-5.0187 0.114661 3.30174e-20)
(-5.02065 0.0377511 0)
(-5.01121 -0.0347936 -3.3831e-20)
(-4.99041 -0.10319 1.91796e-21)
(-4.95841 -0.167588 6.57085e-20)
(-4.91548 -0.228013 -6.70292e-20)
(-4.86193 -0.284467 0)