/*--------------------------------*- C++ -*----------------------------------*\
  =========                 |
  \\      /  F ield         | OpenFOAM: The Open Source CFD Toolbox
   \\    /   O peration     | Website:  https://openfoam.org
    \\  /    A nd           | Version:  9
     \\/     M anipulation  |
\*---------------------------------------------------------------------------*/
FoamFile
{
    format      ascii;
    class       volScalarField;
    location    "0.13";
    object      epsilon;
}
// * * * * * * * * * * * * * * * * * * * * * * * * * * * * * * * * * * * * * //

dimensions      [0 2 -3 0 0 0 0];

internalField   nonuniform List<scalar> 
12225
(
209.504
126.104
81.5412
58.0141
45.1625
37.6185
32.7933
29.5062
27.2235
25.6584
24.5919
23.8281
23.2108
22.6589
22.2328
22.5714
31.6542
118.173
61.4474
54.7534
42.033
33.2059
27.4943
23.6488
20.9178
18.8745
17.3047
16.1072
15.2151
14.5569
14.0516
13.6172
13.2038
13.2669
19.6634
86.465
31.4784
33.1313
28.7389
24.3006
20.8338
18.2519
16.3246
14.857
13.7256
12.8637
12.2306
11.7879
11.4903
11.2912
11.2146
11.9873
19.7859
77.9944
21.8547
23.8287
22.1436
19.6788
17.4041
15.5365
14.0629
12.913
12.0222
11.3477
10.8623
10.5436
10.3682
10.3232
10.5173
11.9012
20.7404
72.2805
17.8302
19.0775
18.2994
16.8015
15.2344
13.8397
12.6805
11.7492
11.0195
10.4683
10.0796
9.8424
9.74919
9.81744
10.2255
12.0406
21.1563
66.1635
15.8894
16.4097
15.8877
14.865
13.7229
12.6493
11.7193
10.9517
10.3419
9.88123
9.56315
9.38539
9.35355
9.51003
10.081
12.1536
20.9604
59.3397
14.8831
14.8332
14.3191
13.5167
12.6242
11.765
11.0015
10.3581
9.84089
9.4501
9.18644
9.0547
9.07094
9.29643
9.98292
12.1664
20.2906
52.183
14.3433
13.8794
13.2837
12.5669
11.8134
11.0924
10.446
9.89524
9.44917
9.11281
8.89176
8.79619
8.8502
9.12764
9.88669
12.0674
19.3111
45.1802
14.0502
13.299
12.6001
11.8993
11.2156
10.5786
10.0111
9.52677
9.13375
8.83888
8.65064
8.583
8.66565
8.97916
9.77343
11.8696
18.1645
38.714
13.8909
12.9485
12.1535
11.4357
10.7798
10.1896
9.67188
9.23261
8.87728
8.61268
8.44865
8.40149
8.50422
8.83906
9.63755
11.5951
16.9592
33.0031
13.8048
12.7402
11.8675
11.1204
10.4687
9.9005
9.41125
9.00026
8.66985
8.42585
8.2784
8.24491
8.35969
8.70255
9.48067
11.2679
15.7708
28.1306
13.7626
12.6289
11.7038
10.9292
10.2708
9.70879
9.23214
8.83549
8.51859
8.28604
8.14769
8.12107
8.24009
8.57964
9.32193
10.9392
14.7395
24.4162
13.7385
12.5613
11.5982
10.7995
10.1304
9.56745
9.09541
8.70569
8.39594
8.16959
8.03584
8.01174
8.12968
8.45783
9.1521
10.5907
13.7458
21.1715
13.7241
12.5186
11.5276
10.7081
10.0268
9.4588
8.98626
8.59838
8.29114
8.06683
7.93376
7.90789
8.01889
8.32606
8.95659
10.1982
12.734
18.2216
13.7165
12.495
11.4865
10.652
9.96007
9.38539
8.90911
8.51914
8.21035
7.98406
7.84753
7.81507
7.91249
8.18861
8.74139
9.77674
11.7449
15.6475
13.713
12.4839
11.4666
10.6238
9.92482
9.34469
8.86402
8.47016
8.15733
7.92606
7.78247
7.73872
7.81599
8.05186
8.51665
9.34728
10.8187
13.4886
13.7115
12.4797
11.4593
10.6136
9.9122
9.32971
8.84648
8.44943
8.13227
7.89476
7.74171
7.68287
7.73438
7.92302
8.29503
8.93348
9.99108
11.7494
13.7108
12.4782
11.4577
10.6127
9.91267
9.33164
8.84933
8.45195
8.1324
7.88931
7.72593
7.64939
7.67105
7.80823
8.08824
8.55575
9.28537
10.4014
13.7101
12.4772
11.4578
10.6155
9.91966
9.34384
8.86672
8.47326
8.15485
7.90842
7.73521
7.63963
7.62881
7.71287
7.90602
8.22876
8.71123
9.39753
13.7101
12.4787
11.4622
10.6245
9.93468
9.36572
8.89557
8.50798
8.19282
7.94534
7.76485
7.65358
7.61592
7.65805
7.78802
8.01607
8.35492
8.81963
13.7135
12.4899
11.4831
10.6549
9.9729
9.41019
8.94468
8.55999
8.24543
7.99515
7.80704
7.6816
7.62121
7.62957
7.71142
7.87218
8.11725
8.45046
13.7271
12.5308
11.5512
10.7431
10.0723
9.51313
9.04588
8.65624
8.33452
8.07479
7.87404
7.73135
7.6474
7.62402
7.66375
7.76937
7.94287
8.18355
13.7702
12.6487
11.7307
10.9569
10.2956
9.72843
9.24367
8.83267
8.48886
8.20722
7.98414
7.81736
7.70586
7.64973
7.64977
7.70702
7.82169
7.99121
13.892
12.9442
12.1382
11.4053
10.7323
10.1263
9.59216
9.13152
8.74242
8.4208
8.16194
7.96162
7.81669
7.72526
7.68643
7.69972
7.76416
7.87629
14.2128
13.6161
12.9678
12.2451
11.5012
10.7916
10.1539
9.60175
9.13681
8.75363
8.44422
8.20078
8.01702
7.88843
7.81208
7.78594
7.80791
7.8739
15.0218
15.0536
14.5457
13.7091
12.7613
11.8369
11.0133
10.3149
9.7392
9.27288
8.90021
8.60699
8.3821
8.21756
8.10788
8.04919
8.03813
8.06985
17.0549
18.0779
17.4722
16.1911
14.7724
13.4547
12.3287
11.418
10.6961
10.1292
9.6861
9.34229
9.07975
8.88595
8.75234
8.67288
8.64269
8.65581
22.553
24.7205
23.0496
20.516
18.1105
16.0986
14.51
13.3085
12.4074
11.7294
11.2172
10.8307
10.5429
10.336
10.1976
10.1194
10.0948
10.1159
40.7902
41.2265
34.9848
29.1457
24.6643
21.3809
19.0402
17.4172
16.29
15.4906
14.9158
14.5038
14.217
14.0314
13.9312
13.905
13.9438
14.0377
135.843
96.9404
71.5987
55.2056
44.7299
38.1131
33.9586
31.3935
29.7272
28.576
27.7519
27.1653
26.7743
26.5571
26.4984
26.5841
26.7991
27.1234
70.5429
101.286
113.238
119.492
121.189
119.411
114.885
108.13
100.053
92.881
86.1837
80.0856
75.1152
72.0306
71.4528
73.3352
76.6387
79.5638
80.9426
80.9778
81.3906
85.1058
91.6498
99.5783
108.322
117.572
127.125
136.839
146.603
156.335
165.97
175.462
184.772
193.875
202.748
211.375
219.741
227.834
235.641
243.15
250.346
257.216
263.745
269.915
275.71
281.112
286.104
290.666
294.783
298.436
301.613
304.299
306.487
308.172
309.355
310.048
310.269
310.051
309.361
307.94
305.786
302.893
299.258
294.879
289.762
283.922
277.38
270.168
262.328
253.91
244.975
235.594
225.842
215.803
205.567
195.223
184.864
174.58
164.457
154.579
145.019
135.844
127.11
118.864
111.144
103.974
97.372
91.3457
85.8941
81.0091
76.6756
72.8732
69.5763
66.7561
64.3809
62.4178
60.8331
59.5937
58.6678
58.0251
57.6376
57.4791
57.526
57.7581
58.1631
58.6871
59.3118
60.0182
60.7878
61.6026
62.4457
63.3012
64.1548
64.9945
65.8103
66.5958
67.3485
68.0711
68.7452
69.3511
69.8849
70.343
70.7228
71.0227
71.2417
71.38
71.4382
71.4179
71.321
71.1499
70.9072
70.5959
70.2189
69.779
69.2791
68.7215
68.1084
67.4415
66.7221
65.9515
65.1306
64.2612
63.3486
62.4116
61.5118
60.8417
60.9323
62.6745
65.828
66.3092
62.027
66.8463
65.4741
62.9965
14.9506
67.61
67.4777
14.7498
15.3613
15.3646
69.1951
69.6908
15.7693
68.9448
15.7359
15.8485
15.7973
16.3051
16.2773
16.0228
15.6102
15.0787
14.4833
13.8794
13.3014
12.7795
12.3331
11.9638
11.649
11.3586
109.798
94.12
86.4913
80.6358
75.6966
71.6077
68.3299
65.8546
64.3881
64.5213
65.7615
68.213
72.3516
78.6316
87.0583
96.9181
107.015
115.278
120.781
124.447
127.109
129.281
130.975
132.119
132.733
132.902
132.735
132.336
131.79
131.165
130.507
129.847
129.204
128.585
127.994
127.426
126.875
126.333
125.792
125.243
124.677
124.086
123.463
122.801
122.096
121.344
120.542
119.687
118.781
117.823
116.816
115.763
114.67
113.545
112.399
111.247
110.106
108.995
107.962
106.851
105.588
104.157
102.551
100.764
98.7922
96.634
94.2909
91.7672
89.0707
86.2124
83.2069
80.0721
76.8289
73.5012
70.1147
66.6972
63.2772
59.8834
56.5441
53.2862
50.1348
47.1125
44.239
41.5307
39.0007
36.6585
34.5102
32.559
30.8049
29.245
27.8745
26.6861
25.671
24.8192
24.1193
23.5595
23.1275
22.8111
22.5982
22.4772
22.437
22.4673
22.5585
22.7019
22.8981
23.1202
23.3542
23.5929
23.831
24.0643
24.2897
24.5052
24.7094
24.9024
25.0851
25.2597
25.4297
25.6
25.7728
25.9299
26.0703
26.1936
26.2998
26.389
26.4616
26.5178
26.5583
26.5836
26.5942
26.5908
26.574
26.5444
26.5025
26.4489
26.3837
26.3073
26.2198
26.1211
26.0111
25.8894
25.7561
25.611
25.455
25.2912
25.1285
24.9917
24.9317
24.9601
24.7915
24.558
24.5621
24.3069
24.0201
23.9907
21.3185
23.5248
23.3707
20.9555
19.2369
20.1125
21.6333
21.3464
19.0239
20.2803
18.0668
16.3912
16.3806
13.9298
12.5865
11.7921
11.1997
10.6903
10.2442
9.87326
9.5838
9.39625
9.32661
9.37773
9.53401
9.84584
132.717
103.352
91.9894
84.5798
78.8787
74.5389
71.582
70.1667
70.6599
73.0225
77.5816
84.809
94.8127
106.114
117.176
126.31
132.339
134.926
134.691
132.723
129.929
126.85
123.72
120.646
117.696
114.922
112.358
110.02
107.907
106.005
104.293
102.746
101.337
100.043
98.8407
97.7129
96.6444
95.6239
94.6429
93.6958
92.7786
91.8893
91.0273
90.1927
89.3863
88.6094
87.8634
87.1495
86.469
85.8225
85.2105
84.6327
84.0881
83.5751
83.0912
82.633
82.1953
81.7713
81.3345
80.8342
80.2468
79.5571
78.7524
77.8211
76.7531
75.54
74.1754
72.6557
70.9803
69.1516
67.1754
65.061
62.821
60.4712
58.0303
55.5193
52.9611
50.3799
47.8001
45.2461
42.7412
40.3073
37.964
35.7285
33.615
31.6346
29.7955
28.1029
26.559
25.1638
23.9148
22.8079
21.8374
20.9963
20.2769
19.6706
19.1686
18.7618
18.4408
18.1964
18.0197
17.9018
17.8346
17.8106
17.8183
17.848
17.8936
17.9505
18.0151
18.0847
18.1572
18.2312
18.3057
18.3804
18.4553
18.5309
18.6076
18.686
18.7624
18.8331
18.8974
18.9552
19.0065
19.0513
19.0899
19.1223
19.1489
19.1699
19.1855
19.1962
19.202
19.2033
19.2004
19.1932
19.182
19.1668
19.1474
19.1237
19.0954
19.0622
19.0237
18.9796
18.9294
18.8732
18.8117
18.7478
18.6855
18.6137
18.4784
18.3491
18.3128
18.1073
17.9477
17.8497
17.4038
17.4011
17.2115
16.8439
16.3586
16.2139
15.9578
15.6026
15.112
14.779
14.236
13.5885
13.0523
12.1178
11.3241
10.6842
10.1417
9.66446
9.24315
8.88261
8.58723
8.36856
8.24266
8.22299
8.31444
8.53089
152.05
117.669
105.976
97.9015
91.3878
86.5684
83.7241
83.1821
84.5636
88.0239
93.6686
101.3
110.132
118.739
125.622
129.718
130.741
129.16
125.88
121.816
117.621
113.649
110.043
106.839
104.025
101.569
99.4291
97.5601
95.9157
94.4527
93.1328
91.9238
90.7999
89.7417
88.7354
87.7723
86.8475
85.959
85.1075
84.2949
83.5242
82.7991
82.1233
81.5004
80.9337
80.426
79.9794
79.5952
79.2738
79.0146
78.8159
78.6746
78.5866
78.5462
78.5462
78.5776
78.6298
78.6899
78.7234
78.7019
78.6051
78.415
78.1145
77.6872
77.1179
76.3928
75.5002
74.4312
73.1798
71.7433
70.1232
68.3246
66.3569
64.2334
61.9713
59.5909
57.1156
54.5708
51.9834
49.3808
46.7901
44.2374
41.7471
39.3408
37.0374
34.8525
32.7981
30.8829
29.1123
27.4887
26.0116
24.6785
23.4848
22.4247
21.4911
20.676
19.9711
19.3675
18.8563
18.4285
18.0752
17.7875
17.5565
17.3719
17.2254
17.1106
17.022
16.9549
16.9056
16.8709
16.848
16.8349
16.8297
16.8313
16.8386
16.8507
16.8669
16.8867
16.9071
16.9259
16.9422
16.9554
16.9654
16.9719
16.9751
16.9749
16.9715
16.9649
16.9555
16.9433
16.9287
16.9118
16.893
16.8723
16.8499
16.826
16.8004
16.7732
16.7441
16.7129
16.6792
16.6423
16.6017
16.5566
16.5059
16.449
16.3858
16.3132
16.221
16.1246
16.034
15.8933
15.753
15.6113
15.3972
15.2222
15.023
14.7949
14.5176
14.2758
13.9864
13.6806
13.3513
13.0078
12.6288
12.2022
11.7574
11.2256
10.7039
10.2193
9.77309
9.36334
8.98997
8.65484
8.36161
8.1165
7.93066
7.81682
7.78564
7.84137
167.848
137.702
126.444
117.223
109.46
103.558
99.8439
98.0221
98.1036
100.13
103.84
108.644
113.634
117.767
120.206
120.593
119.103
116.284
112.791
109.172
105.77
102.746
100.139
97.9259
96.0571
94.475
93.1225
91.9478
90.9057
89.9591
89.0791
88.2445
87.4412
86.6612
85.9012
85.162
84.4469
83.7612
83.1115
82.5048
81.9481
81.4484
81.0119
80.6442
80.3501
80.1333
79.9962
79.9403
79.9656
80.0709
80.2533
80.5084
80.8303
81.2111
81.6412
82.1091
82.6015
83.1026
83.5759
83.9967
84.3426
84.5919
84.7233
84.7155
84.5482
84.2025
83.6616
82.911
81.9398
80.7409
79.3112
77.6526
75.7716
73.6798
71.3936
68.9339
66.3255
63.5965
60.7776
57.9009
54.9991
52.1043
49.2473
46.4563
43.7565
41.1695
38.7128
36.3998
34.2399
32.2386
30.3978
28.7167
27.1918
25.8176
24.5872
23.4925
22.5246
21.6744
20.9321
20.2884
19.7335
19.2584
18.8498
18.4992
18.1994
17.9438
17.7266
17.5424
17.3865
17.2548
17.1435
17.0497
16.9705
16.9036
16.847
16.7991
16.7582
16.7231
16.6921
16.6621
16.6313
16.599
16.5644
16.5272
16.4871
16.4441
16.3981
16.3493
16.2979
16.244
16.1882
16.1306
16.0716
16.0117
15.9511
15.89
15.8288
15.7675
15.7062
15.6446
15.5825
15.5194
15.4546
15.3873
15.3162
15.2404
15.1594
15.072
14.9745
14.8673
14.75
14.6115
14.4619
14.2987
14.1082
13.9071
13.6988
13.4812
13.247
13.0112
12.7583
12.4974
12.2266
11.9421
11.6421
11.3219
10.9859
10.6245
10.2581
9.89938
9.55507
9.22889
8.92277
8.63687
8.37129
8.1288
7.91534
7.73906
7.60952
7.52831
174.718
161.528
150.352
139.056
129.252
121.377
115.13
110.631
108.048
107.248
107.828
109.17
110.556
111.348
111.158
109.925
107.868
105.342
102.704
100.214
98.016
96.1583
94.628
93.3823
92.3679
91.5312
90.8238
90.2045
89.6402
89.106
88.5846
88.0658
87.5451
87.0228
86.503
85.9925
85.4999
85.0349
84.6075
84.2279
83.9058
83.65
83.4688
83.369
83.3566
83.4359
83.6101
83.8809
84.2482
84.7106
85.2646
85.9051
86.625
87.4152
88.2645
89.1597
90.0858
91.0209
91.9317
92.7915
93.5749
94.2563
94.8098
95.2093
95.4295
95.4459
95.2362
94.7804
94.0622
93.0691
91.7936
90.2333
88.3915
86.2776
83.9067
81.2998
78.4831
75.4875
72.3477
69.101
65.7864
62.443
59.1092
55.8211
52.6116
49.5099
46.5403
43.7223
41.0704
38.5943
36.2992
34.1862
32.2533
30.4956
28.9061
27.4764
26.1969
25.0575
24.0476
23.1566
22.3738
21.6877
21.0829
20.5519
20.0871
19.6811
19.3272
19.0189
18.7505
18.5166
18.3123
18.1334
17.976
17.8367
17.7124
17.6006
17.4989
17.4054
17.3186
17.2354
17.1527
17.0688
16.9826
16.8933
16.8005
16.704
16.6036
16.4995
16.392
16.2812
16.1679
16.0524
15.9354
15.8175
15.6993
15.5813
15.4642
15.3484
15.234
15.1213
15.0102
14.9004
14.7914
14.6823
14.5723
14.4604
14.3457
14.2269
14.1012
13.9662
13.8201
13.6605
13.4883
13.302
13.0987
12.8808
12.6576
12.4344
12.2088
11.9836
11.7559
11.5281
11.2993
11.0673
10.8308
10.5883
10.3406
10.0865
9.83029
9.57643
9.32882
9.09009
8.86108
8.64032
8.42458
8.21215
8.00477
7.8058
7.62181
7.45198
174.765
188.813
174.122
159.526
147.184
136.359
127.187
119.872
114.457
110.782
108.486
107.07
106.021
104.93
103.579
101.941
100.126
98.2982
96.6045
95.1414
93.9474
93.0165
92.3156
91.8
91.4225
91.1396
90.9138
90.7152
90.5212
90.3167
90.0929
89.8468
89.5802
89.2989
89.0111
88.7276
88.4599
88.2205
88.0217
87.8758
87.7942
87.7873
87.8647
88.0346
88.3037
88.6774
89.1595
89.7521
90.4553
91.2678
92.1859
93.204
94.3143
95.5069
96.7694
98.0872
99.4435
100.813
102.164
103.468
104.695
105.817
106.804
107.624
108.248
108.644
108.785
108.645
108.201
107.435
106.334
104.889
103.102
100.976
98.5248
95.7688
92.7344
89.4545
85.9672
82.315
78.543
74.6981
70.8268
66.9743
63.1827
59.4899
55.9287
52.5263
49.3038
46.2761
43.4528
40.8382
38.4319
36.2303
34.2266
32.4119
30.7758
29.3073
27.9945
26.8255
25.7891
24.8652
24.043
23.3134
22.6677
22.0975
21.5947
21.1516
20.7611
20.4164
20.1114
19.8403
19.5982
19.3803
19.1826
19.0013
18.8333
18.6758
18.5264
18.3836
18.2424
18.0999
17.9543
17.8045
17.6497
17.4895
17.3236
17.1523
16.9757
16.7945
16.6092
16.4208
16.23
16.0379
15.8455
15.6537
15.4635
15.2758
15.0913
14.9104
14.7336
14.5608
14.3919
14.2263
14.0632
13.9018
13.7408
13.5788
13.4128
13.2402
13.0591
12.8679
12.6656
12.4514
12.2246
11.986
11.7419
11.5052
11.2752
11.0528
10.8382
10.6322
10.4348
10.2445
10.0601
9.88029
9.70486
9.53299
9.36468
9.2005
9.04134
8.88761
8.73836
8.59042
8.43842
8.2758
8.10062
7.91243
7.71488
7.50499
170.349
230.866
198
176.52
160.354
146.919
135.487
125.948
118.301
112.439
108.098
104.907
102.476
100.492
98.7621
97.2064
95.8245
94.6479
93.706
93.008
92.5403
92.2723
92.1636
92.1716
92.2558
92.381
92.5181
92.6453
92.7472
92.8149
92.8451
92.8395
92.8036
92.7461
92.6781
92.6124
92.5626
92.5427
92.5668
92.6484
92.8002
93.0342
93.3608
93.7895
94.328
94.9825
95.7576
96.6561
97.6787
98.8242
100.089
101.468
102.952
104.532
106.194
107.922
109.698
111.497
113.285
115.034
116.712
118.287
119.724
120.988
122.043
122.854
123.385
123.605
123.485
122.998
122.126
120.854
119.175
117.09
114.608
111.747
108.532
104.996
101.179
97.1294
92.8966
88.5354
84.1011
79.6485
75.2301
70.8942
66.6837
62.635
58.7776
55.1336
51.7182
48.5399
45.6013
42.9004
40.4312
38.1846
36.1496
34.3139
32.6642
31.187
29.8679
28.6832
27.6227
26.6762
25.8336
25.0849
24.4207
23.8318
23.3094
22.8454
22.4319
22.062
21.729
21.427
21.1505
20.8946
20.6551
20.4282
20.2104
20.0014
19.7953
19.5877
19.3759
19.1581
18.933
18.7001
18.459
18.2099
17.9531
17.6893
17.4194
17.1445
16.8659
16.585
16.3032
16.0222
15.7433
15.4679
15.1974
14.9329
14.6751
14.4247
14.1818
13.9464
13.718
13.4956
13.2781
13.0636
12.8493
12.6325
12.4108
12.1824
11.9456
11.6996
11.4443
11.1806
10.9113
10.6539
10.4106
10.182
9.96956
9.77442
9.59716
9.43715
9.29299
9.16329
9.04672
8.94169
8.84643
8.75935
8.67915
8.60432
8.53217
8.45807
8.37507
8.27351
8.14703
7.99257
7.81145
7.59922
836.27
315.74
220.272
187.391
168.083
153.069
140.313
129.446
120.451
113.283
107.767
103.619
100.525
98.2033
96.4446
95.1163
94.1418
93.4752
93.0816
92.9257
92.9682
93.1668
93.4788
93.8643
94.2878
94.7197
95.1367
95.522
95.8649
96.1605
96.4086
96.6134
96.7828
96.9271
97.0589
97.1923
97.342
97.5233
97.751
98.0399
98.4037
98.8555
99.4068
100.068
100.848
101.755
102.792
103.966
105.276
106.722
108.302
110.009
111.837
113.775
115.809
117.923
120.097
122.306
124.52
126.708
128.837
130.873
132.776
134.508
136.028
137.295
138.268
138.907
139.176
139.043
138.478
137.462
135.979
134.023
131.597
128.713
125.394
121.671
117.584
113.183
108.524
103.667
98.677
93.6179
88.5537
83.5447
78.6456
73.9042
69.3604
65.0453
60.9817
57.1839
53.6588
50.4071
47.4241
44.7013
42.227
39.9879
37.9693
36.1563
34.5263
33.0581
31.7397
30.5592
29.5048
28.5649
27.7283
26.9841
26.3217
25.7314
25.2037
24.7298
24.3015
23.9114
23.5526
23.2188
22.9046
22.6049
22.3157
22.0341
21.7581
21.4805
21.1971
20.9055
20.604
20.2914
19.9675
19.6322
19.286
18.9296
18.5643
18.1916
17.813
17.4305
17.0461
16.6618
16.2799
15.9024
15.5312
15.1683
14.8151
14.4729
14.1426
13.8247
13.519
13.2249
12.9414
12.6663
12.397
12.1305
11.864
11.5949
11.321
11.041
10.7544
10.4621
10.1658
9.88153
9.61753
9.37425
9.15377
8.95826
8.78921
8.64684
8.53013
8.43745
8.36668
8.31523
8.28006
8.25807
8.24633
8.24172
8.24012
8.23566
8.22023
8.18283
8.11239
8.00404
7.85725
7.66675
809.003
318.27
224.026
190.594
170.856
155.494
142.359
131.041
121.534
113.838
107.838
103.318
100.006
97.6408
96.0028
94.9262
94.2913
94.0102
94.0145
94.2459
94.6523
95.186
95.8038
96.4681
97.1467
97.814
98.4503
99.042
99.5813
100.065
100.496
100.879
101.223
101.539
101.841
102.143
102.462
102.812
103.21
103.67
104.209
104.839
105.574
106.425
107.402
108.514
109.766
111.165
112.713
114.411
116.256
118.245
120.369
122.62
124.983
127.443
129.98
132.568
135.182
137.791
140.362
142.858
145.237
147.456
149.472
151.236
152.703
153.825
154.56
154.866
154.706
154.05
152.873
151.162
148.91
146.122
142.814
139.012
134.755
130.092
125.081
119.787
114.282
108.642
102.941
97.2532
91.6469
86.1833
80.9152
75.8852
71.1257
66.6591
62.4983
58.6481
55.1063
51.8653
48.9135
46.2365
43.8182
41.6425
39.6766
37.904
36.31
34.8807
33.602
32.4604
31.4427
30.536
29.728
29.0067
28.3611
27.7806
27.2551
26.7754
26.3332
25.9207
25.5308
25.1574
24.7951
24.439
24.0899
23.7394
23.3816
23.013
22.6311
22.2347
21.823
21.3958
20.9538
20.4978
20.0293
19.5499
19.0619
18.5675
18.0693
17.5702
17.0729
16.5803
16.0951
15.6201
15.1577
14.7101
14.279
13.8656
13.4706
13.0939
12.7346
12.3909
12.06
11.7387
11.4236
11.1113
10.7987
10.4835
10.1645
9.842
9.51738
9.20234
8.91204
8.6466
8.40881
8.20196
8.02881
7.89072
7.78753
7.71779
7.67897
7.66758
7.67945
7.71014
7.75527
7.81028
7.86978
7.92687
7.97261
7.99575
7.9811
7.92229
7.81723
7.66027
821.179
320.387
224.105
190.225
170.535
155.398
142.508
131.379
121.982
114.324
108.326
103.814
100.555
98.3084
96.8582
96.0263
95.6733
95.6912
95.9946
96.5139
97.1904
97.974
98.8221
99.6984
100.573
101.424
102.232
102.987
103.682
104.316
104.892
105.415
105.896
106.345
106.777
107.207
107.65
108.124
108.643
109.226
109.886
110.639
111.5
112.48
113.592
114.845
116.248
117.807
119.526
121.408
123.453
125.657
128.015
130.518
133.152
135.904
138.751
141.674
144.65
147.649
150.639
153.581
156.433
159.148
161.678
163.973
165.979
167.646
168.92
169.753
170.1
169.919
169.176
167.846
165.912
163.368
160.22
156.487
152.201
147.406
142.159
136.529
130.593
124.434
118.14
111.797
105.491
99.2966
93.2835
87.5083
82.0162
76.8399
72.0008
67.5094
63.3674
59.5694
56.1043
52.9572
50.1103
47.5441
45.2217
43.1265
41.2417
39.551
38.0379
36.6866
35.4816
34.4078
33.4508
32.5966
31.8321
31.1446
30.5223
29.9542
29.4301
28.9405
28.4769
28.0316
27.5979
27.1698
26.7458
26.3218
25.8892
25.4431
24.9801
24.4985
23.9972
23.4759
22.9351
22.3757
21.7994
21.2082
20.6047
19.9915
19.3719
18.7492
18.1269
17.5088
16.8984
16.2995
15.7155
15.1496
14.6046
14.083
13.5863
13.1153
12.6698
12.2483
11.8484
11.4666
11.0989
10.7408
10.3881
10.0373
9.68583
9.33295
8.97954
8.63218
8.31177
8.01839
7.75535
7.52715
7.33797
7.1907
7.08652
7.02479
7.00307
7.01739
7.06254
7.13275
7.22216
7.32474
7.43387
7.54171
7.63869
7.7135
7.74902
7.73648
7.6726
7.55163
825.455
319.346
221.679
187.61
168.255
153.694
141.451
130.934
122.055
114.806
109.122
104.858
101.817
99.7842
98.5579
97.9627
97.8545
98.1176
98.6596
99.4056
100.294
101.273
102.302
103.344
104.373
105.366
106.307
107.187
107.999
108.743
109.423
110.044
110.616
111.151
111.664
112.168
112.681
113.219
113.799
114.438
115.153
115.96
116.874
117.909
119.079
120.395
121.869
123.507
125.318
127.304
129.469
131.811
134.326
137.008
139.844
142.821
145.919
149.119
152.406
155.751
159.123
162.483
165.787
168.988
172.035
174.874
177.449
179.701
181.574
183.01
183.955
184.359
184.177
183.37
181.911
179.779
176.968
173.484
169.347
164.594
159.275
153.456
147.217
140.646
133.842
126.906
119.937
113.031
106.275
99.7432
93.4964
87.5813
82.0302
76.862
72.0841
67.6946
63.684
60.0376
56.7363
53.755
51.0564
48.6225
46.4341
44.4719
42.7168
41.1502
39.7541
38.511
37.4041
36.4172
35.5349
34.7425
34.0263
33.373
32.7708
32.2083
31.6753
31.1626
30.6619
30.1663
29.6699
29.1744
28.6692
28.1477
27.6058
27.0408
26.4513
25.8369
25.1978
24.5351
23.8505
23.1462
22.4251
21.6903
20.9455
20.1945
19.4417
18.6913
17.9479
17.2161
16.5004
15.8053
15.1348
14.4927
13.8818
13.3043
12.761
12.2515
11.7736
11.3241
10.8984
10.4912
10.0968
9.70987
9.32633
8.94367
8.56165
8.18293
7.83038
7.50519
7.21082
6.95284
6.73694
6.5678
6.44836
6.37941
6.35937
6.38429
6.44824
6.54415
6.66452
6.80173
6.9478
7.09392
7.22999
7.34437
7.42077
7.44672
7.4182
7.32956
821.1
315.401
217.45
183.556
164.774
151.02
139.668
130.011
121.894
115.275
110.092
106.223
103.502
101.744
100.767
100.406
100.523
101.002
101.748
102.684
103.749
104.891
106.067
107.243
108.393
109.495
110.535
111.503
112.394
113.207
113.946
114.617
115.23
115.797
116.332
116.849
117.367
117.901
118.47
119.092
119.784
120.564
121.449
122.456
123.599
124.892
126.349
127.98
129.795
131.8
134
136.397
138.99
141.772
144.736
147.868
151.151
154.568
158.107
161.745
165.45
169.182
172.9
176.555
180.095
183.464
186.604
189.454
191.951
194.033
195.64
196.712
197.195
197.039
196.202
194.65
192.361
189.325
185.546
181.044
175.858
170.045
163.68
156.854
149.671
142.245
134.693
127.129
119.662
112.386
105.382
98.7152
92.4314
86.561
81.1197
76.1107
71.5276
67.357
63.5818
60.161
57.0689
54.283
51.7807
49.5395
47.5372
45.7522
44.1635
42.7511
41.4954
40.378
39.381
38.4876
37.6818
36.9485
36.2736
35.6442
35.0481
34.4745
33.9135
33.3565
32.7955
32.2321
31.6587
31.0666
30.4502
29.8065
29.1333
28.4299
27.6965
26.9341
26.1443
25.3297
24.4932
23.6384
22.7692
21.8901
21.0056
20.1209
19.2411
18.3716
17.5181
16.686
15.8808
15.1076
14.3712
13.6751
13.0219
12.4125
11.8461
11.3198
10.8291
10.3676
9.92846
9.50432
9.08888
8.67743
8.26773
7.85982
7.47513
7.11632
6.78666
6.49258
6.24122
6.03908
5.89119
5.80038
5.76663
5.78676
5.85464
5.96204
6.09976
6.25833
6.42821
6.5995
6.76158
6.9027
7.00799
7.06214
7.06027
6.99695
809.823
309.249
212.033
178.658
160.626
147.814
137.476
128.805
121.571
115.699
111.12
107.732
105.395
103.952
103.243
103.122
103.456
104.136
105.068
106.176
107.397
108.679
109.981
111.268
112.514
113.698
114.805
115.827
116.759
117.599
118.351
119.021
119.621
120.16
120.654
121.118
121.569
122.026
122.508
123.033
123.621
124.291
125.064
125.956
126.987
128.172
129.528
131.069
132.806
134.751
136.909
139.287
141.884
144.698
147.723
150.948
154.356
157.931
161.667
165.539
169.518
173.566
177.64
181.692
185.672
189.523
193.187
196.601
199.701
202.422
204.701
206.472
207.674
208.249
208.144
207.311
205.711
203.315
200.106
196.084
191.268
185.696
179.43
172.556
165.178
157.417
149.406
141.28
133.169
125.194
117.458
110.048
103.028
96.4451
90.3244
84.677
79.5014
74.7865
70.5151
66.6422
63.1442
59.9962
57.1728
54.6478
52.3957
50.3914
48.6109
47.0311
45.6297
44.3855
43.2784
42.2891
41.3996
40.5925
39.8519
39.1627
38.5111
37.8844
37.2713
36.6616
36.0465
35.4206
34.7852
34.1289
33.4449
32.7292
31.9792
31.1937
30.3728
29.5174
28.6291
27.7105
26.7648
25.7956
24.8074
23.8047
22.7926
21.7765
20.7622
19.7556
18.763
17.791
16.846
15.9349
15.0637
14.2384
13.4635
12.742
12.0749
11.4607
10.8953
10.3723
9.88344
9.41942
8.97138
8.5319
8.09605
7.66138
7.24656
6.85428
6.48757
6.15345
5.86024
5.6162
5.42858
5.30264
5.24062
5.24093
5.29795
5.40271
5.54429
5.7112
5.89206
6.0757
6.25091
6.40597
6.5277
6.59901
6.61425
6.56826
793.619
301.567
205.916
173.339
156.176
144.366
135.085
127.438
121.13
116.052
112.127
109.264
107.347
106.246
105.822
105.947
106.499
107.375
108.485
109.754
111.12
112.53
113.942
115.323
116.644
117.886
119.034
120.078
121.013
121.838
122.558
123.177
123.707
124.159
124.549
124.892
125.207
125.514
125.832
126.184
126.591
127.074
127.656
128.359
129.203
130.209
131.396
132.78
134.378
136.202
138.263
140.567
143.119
145.917
148.957
152.229
155.717
159.406
163.288
167.34
171.532
175.828
180.186
184.56
188.9
193.151
197.255
201.152
204.779
208.071
210.964
213.393
215.295
216.607
217.27
217.227
216.425
214.817
212.365
209.041
204.836
199.762
193.856
187.184
179.844
171.956
163.663
155.118
146.476
137.884
129.474
121.357
113.623
106.336
99.5357
93.2442
87.4666
82.1957
77.415
73.0798
69.1672
65.6511
62.5028
59.6925
57.1906
54.9687
52.9993
51.256
49.7135
48.3479
47.1365
46.0576
45.0909
44.2171
43.4181
42.6769
41.9781
41.3071
40.6508
39.9976
39.3371
38.6601
37.9707
37.2582
36.5148
35.7355
34.9173
34.0587
33.1592
32.2198
31.2422
30.2288
29.1831
28.1089
27.0106
25.8933
24.7621
23.6227
22.481
21.3434
20.2164
19.1072
18.0231
16.9719
15.9615
14.9995
14.093
13.2477
12.4672
11.7522
11.1004
10.5058
9.95954
9.45068
8.9677
8.5
8.03936
7.58061
7.13902
6.71516
6.31178
5.93612
5.59731
5.30511
5.06895
4.89671
4.79343
4.75993
4.79194
4.88039
5.01294
5.17593
5.35589
5.54014
5.71674
5.87411
6.00077
6.079
6.10252
6.06656
773.176
293.03
199.306
167.709
151.516
140.76
132.564
125.962
120.603
116.346
113.107
110.802
109.337
108.603
108.484
108.867
109.646
110.723
112.013
113.443
114.951
116.485
118
119.464
120.847
122.128
123.293
124.33
125.235
126.006
126.647
127.166
127.571
127.876
128.097
128.251
128.359
128.443
128.525
128.63
128.782
129.008
129.332
129.781
130.379
131.151
132.118
133.303
134.723
136.394
138.328
140.535
143.019
145.779
148.812
152.107
155.65
159.422
163.413
167.597
171.946
176.422
180.987
185.596
190.202
194.751
199.189
203.458
207.496
211.243
214.636
217.615
220.119
222.09
223.468
224.198
224.219
223.473
221.903
219.455
216.085
211.768
206.504
200.326
193.306
185.553
177.21
168.443
159.43
150.348
141.357
132.596
124.192
116.227
108.76
101.827
95.4422
89.6055
84.3003
79.4881
75.1479
71.2532
67.773
64.6728
61.9188
59.4785
57.3209
55.4161
53.7356
52.2522
50.9407
49.777
48.7384
47.8035
46.9521
46.1656
45.4265
44.7186
44.0273
43.3392
42.6424
41.9267
41.1885
40.4265
39.6308
38.7955
37.9168
36.9929
36.0232
35.0084
33.9502
32.8513
31.7149
30.5453
29.3469
28.125
26.8849
25.6323
24.3732
23.1139
21.8611
20.6219
19.4039
18.2155
17.0656
15.9634
14.9184
13.939
13.0323
12.2023
11.4494
10.7698
10.155
9.59298
9.06992
8.57181
8.0866
7.60646
7.14181
6.68945
6.25161
5.83515
5.44948
5.10552
4.81464
4.5874
4.43199
4.35227
4.34624
4.40563
4.51719
4.66519
4.83387
5.00877
5.17705
5.32725
5.44941
5.52642
5.55139
5.52008
830.913
294.266
194.482
162.708
147.289
137.49
130.273
124.606
120.097
116.582
113.969
112.182
111.142
110.756
110.928
111.559
112.553
113.821
115.282
116.864
118.505
120.152
121.762
123.297
124.729
126.036
127.199
128.21
129.061
129.751
130.285
130.668
130.913
131.033
131.045
130.97
130.831
130.651
130.457
130.278
130.142
130.079
130.12
130.294
130.631
131.158
131.903
132.887
134.133
135.658
137.473
139.589
142.009
144.732
147.752
151.058
154.633
158.458
162.514
166.776
171.214
175.794
180.479
185.226
189.992
194.727
199.377
203.886
208.196
212.248
215.983
219.343
222.276
224.732
226.662
228.018
228.749
228.798
228.101
226.584
224.173
220.799
216.415
211.003
204.592
197.26
189.137
180.391
171.217
161.828
152.405
143.107
134.127
125.559
117.481
109.945
102.983
96.602
90.7846
85.5068
80.7469
76.4825
72.6817
69.3033
66.3086
63.6607
61.3262
59.2718
57.4646
55.8745
54.4735
53.2354
52.135
51.1489
50.2551
49.4332
48.6641
47.9299
47.2146
46.5032
45.7827
45.0412
44.269
43.4699
42.6342
41.7553
40.8291
39.8532
38.827
37.7509
36.6265
35.4566
34.2447
32.995
31.7123
30.4019
29.0694
27.7204
26.3609
24.997
23.635
22.2817
20.9443
19.6309
18.3507
17.1138
15.9311
14.8139
13.7724
12.8152
11.9468
11.1669
10.4693
9.84232
9.27068
8.73721
8.22557
7.72672
7.24205
6.76516
6.29685
5.84273
5.4118
5.01551
4.66682
4.37885
4.16306
4.02687
3.97139
3.99014
4.06981
4.193
4.34159
4.49908
4.65152
4.78741
4.89794
4.96787
4.9894
4.95906
839.679
292.986
190.171
158.37
143.658
134.713
128.351
123.489
119.707
116.828
114.756
113.421
112.754
112.678
113.109
113.962
115.15
116.589
118.203
119.922
121.683
123.433
125.126
126.724
128.196
129.519
130.673
131.647
132.434
133.033
133.447
133.684
133.756
133.678
133.47
133.154
132.756
132.305
131.831
131.366
130.944
130.6
130.369
130.285
130.382
130.692
131.242
132.059
133.164
134.575
136.302
138.352
140.727
143.423
146.429
149.732
153.314
157.15
161.219
165.495
169.948
174.549
179.264
184.056
188.882
193.696
198.448
203.083
207.541
211.762
215.687
219.26
222.433
225.161
227.412
229.153
230.353
230.972
230.957
230.234
228.712
226.289
222.866
218.369
212.766
206.09
198.435
189.96
180.855
171.391
161.755
152.139
142.733
133.68
125.087
117.033
109.564
102.703
96.4316
90.7447
85.6227
81.0378
76.9539
73.3296
70.1226
67.2908
64.8013
62.6184
60.7034
59.023
57.5476
56.2488
55.0991