/*--------------------------------*- C++ -*----------------------------------*\
  =========                 |
  \\      /  F ield         | OpenFOAM: The Open Source CFD Toolbox
   \\    /   O peration     | Website:  https://openfoam.org
    \\  /    A nd           | Version:  9
     \\/     M anipulation  |
\*---------------------------------------------------------------------------*/
FoamFile
{
    format      ascii;
    class       volScalarField;
    location    "0.13";
    object      k;
}
// * * * * * * * * * * * * * * * * * * * * * * * * * * * * * * * * * * * * * //

dimensions      [0 2 -2 0 0 0 0];

internalField   nonuniform List<scalar> 
12225
(
0.266226
0.160253
0.103654
0.073797
0.0574905
0.0478892
0.0416937
0.0374064
0.0343628
0.0322204
0.0307269
0.0296533
0.0288073
0.0280769
0.02752
0.0279882
0.0397445
0.151698
0.334066
0.249274
0.19601
0.164059
0.14354
0.129159
0.118326
0.109834
0.103158
0.0980283
0.094191
0.0913254
0.0890821
0.0871832
0.0856522
0.0862386
0.104171
0.244897
0.345012
0.285443
0.239158
0.206155
0.182393
0.164777
0.151358
0.141013
0.133116
0.127261
0.123081
0.120169
0.118099
0.116525
0.115529
0.117925
0.142594
0.294833
0.350019
0.304708
0.265142
0.233717
0.209222
0.190107
0.17516
0.163558
0.154751
0.148317
0.143843
0.140883
0.138982
0.137787
0.137546
0.141848
0.171776
0.322699
0.353125
0.31645
0.282355
0.253373
0.229476
0.210026
0.194385
0.182047
0.172619
0.16574
0.161015
0.158002
0.156253
0.155453
0.156022
0.16191
0.193545
0.335069
0.355198
0.324171
0.29441
0.267982
0.245299
0.226217
0.210478
0.197835
0.18806
0.180885
0.175976
0.172929
0.171328
0.170917
0.172243
0.179243
0.210323
0.337268
0.356637
0.329494
0.303147
0.279103
0.257877
0.239564
0.224133
0.211521
0.201637
0.194319
0.189307
0.186257
0.184806
0.18476
0.186728
0.194378
0.223525
0.333478
0.357656
0.33327
0.309613
0.287692
0.267969
0.250634
0.235774
0.223442
0.21365
0.206327
0.201295
0.198281
0.196983
0.197264
0.199737
0.207655
0.234148
0.326757
0.358382
0.335986
0.314451
0.294373
0.276102
0.259833
0.245704
0.233827
0.224283
0.217077
0.212105
0.209166
0.208023
0.208586
0.211428
0.219334
0.242908
0.319178
0.3589
0.33795
0.318085
0.299582
0.282659
0.26747
0.254154
0.242848
0.23367
0.226681
0.22184
0.219013
0.218025
0.218824
0.221919
0.229626
0.250309
0.312018
0.359267
0.339369
0.320811
0.303635
0.28793
0.273786
0.261314
0.250646
0.241917
0.235222
0.230572
0.227891
0.227058
0.228051
0.231306
0.238701
0.256696
0.305983
0.359505
0.340305
0.322676
0.306511
0.291793
0.278547
0.266841
0.256786
0.248515
0.242141
0.23771
0.235188
0.234499
0.235638
0.238975
0.246028
0.261814
0.301701
0.359679
0.341002
0.32411
0.308795
0.294953
0.282542
0.271583
0.262153
0.254374
0.248362
0.244188
0.241855
0.241321
0.2426
0.245995
0.252712
0.266541
0.298499
0.359818
0.341568
0.325315
0.310782
0.297789
0.286224
0.276049
0.267302
0.260079
0.254493
0.250631
0.248524
0.248165
0.249575
0.252994
0.259321
0.271257
0.296201
0.359922
0.342
0.326266
0.31241
0.300191
0.289435
0.280043
0.272003
0.265377
0.260266
0.256761
0.254914
0.254741
0.256271
0.259676
0.26558
0.275768
0.294843
0.359994
0.342303
0.326961
0.313646
0.302084
0.292047
0.283382
0.276023
0.269996
0.265375
0.262249
0.260677
0.260691
0.262319
0.265672
0.271134
0.279773
0.294192
0.360036
0.342493
0.327416
0.314494
0.303434
0.293978
0.285924
0.279164
0.273678
0.269514
0.266741
0.265421
0.265589
0.267268
0.270513
0.27552
0.282836
0.293747
0.360052
0.342581
0.327654
0.314973
0.304247
0.295197
0.287595
0.281289
0.276225
0.272413
0.269901
0.26874
0.268964
0.270586
0.273621
0.278131
0.284318
0.292679
0.360039
0.342564
0.327667
0.315068
0.304488
0.295646
0.288292
0.282249
0.27742
0.273782
0.271355
0.270172
0.270261
0.271631
0.274273
0.278177
0.283353
0.289886
0.359993
0.342411
0.327376
0.31463
0.30392
0.294981
0.287568
0.281486
0.276612
0.27289
0.270313
0.268894
0.26865
0.269589
0.271699
0.274953
0.279304
0.284697
0.359914
0.342115
0.326763
0.31364
0.302536
0.29323
0.285493
0.279132
0.274005
0.270029
0.267166
0.265405
0.264748
0.265193
0.26673
0.269327
0.272927
0.277436
0.359766
0.341534
0.325558
0.311707
0.299863
0.289869
0.281535
0.274668
0.269109
0.264742
0.261492
0.259316
0.258191
0.258102
0.259031
0.260947
0.263792
0.267469
0.359492
0.340449
0.323374
0.308328
0.295339
0.284336
0.275161
0.267615
0.261505
0.25667
0.252989
0.250378
0.248782
0.248167
0.248504
0.24976
0.251881
0.25477
0.359009
0.338548
0.3197
0.302879
0.288334
0.276053
0.265879
0.257575
0.25089
0.245596
0.241512
0.238507
0.236493
0.235412
0.235225
0.235894
0.237366
0.239552
0.358198
0.335379
0.313863
0.294616
0.27812
0.264413
0.253224
0.244223
0.23706
0.23142
0.227049
0.223765
0.221445
0.220013
0.219419
0.21962
0.220566
0.222169
0.356897
0.330241
0.304868
0.282521
0.263802
0.248682
0.236667
0.227212
0.219821
0.214065
0.209614
0.206237
0.203786
0.202168
0.201327
0.201217
0.201791
0.202963
0.354852
0.321863
0.291023
0.264958
0.244037
0.227794
0.215435
0.205997
0.19879
0.193267
0.189029
0.185814
0.183457
0.18186
0.180966
0.18073
0.181106
0.182013
0.351643
0.307547
0.269027
0.238966
0.216441
0.199944
0.188037
0.179325
0.172874
0.168038
0.164384
0.161642
0.159652
0.158323
0.157599
0.157441
0.157806
0.158622
0.344626
0.279637
0.231378
0.198255
0.175763
0.160506
0.150139
0.143033
0.138022
0.13442
0.131802
0.129922
0.128642
0.127884
0.127601
0.127759
0.128323
0.129236
0.299914
0.214017
0.158027
0.121748
0.0985065
0.0837939
0.0745418
0.068839
0.065199
0.0627305
0.0609855
0.0597465
0.0589115
0.0584306
0.0582733
0.0584142
0.0588254
0.0594685
0.237837
0.26489
0.28576
0.296467
0.299515
0.296828
0.289553
0.278369
0.264312
0.251536
0.239276
0.227744
0.217967
0.21154
0.209911
0.213224
0.219593
0.225612
0.228831
0.229295
0.229684
0.23513
0.246243
0.259762
0.27446
0.28971
0.305153
0.320554
0.335754
0.350647
0.365159
0.379244
0.392875
0.406035
0.418717
0.430918
0.442639
0.453879
0.464638
0.474916
0.484709
0.494012
0.502818
0.511119
0.518903
0.526158
0.532872
0.539029
0.544616
0.549618
0.554023
0.557819
0.560998
0.563555
0.565491
0.566815
0.567548
0.567722
0.567388
0.566251
0.564203
0.561233
0.557324
0.55246
0.546628
0.539822
0.532043
0.523303
0.513622
0.503032
0.491576
0.47931
0.466302
0.45263
0.438386
0.423668
0.408585
0.393252
0.377787
0.362314
0.346953
0.331824
0.317042
0.302718
0.28895
0.275832
0.263441
0.251846
0.241101
0.231246
0.222305
0.21429
0.207197
0.201006
0.195689
0.191204
0.187504
0.184534
0.182238
0.180557
0.179434
0.178812
0.17864
0.178871
0.179477
0.180346
0.181426
0.182675
0.184052
0.185517
0.187035
0.188571
0.190096
0.191586
0.193021
0.194387
0.195679
0.196899
0.198039
0.199043
0.199905
0.20062
0.201183
0.201593
0.20185
0.201953
0.201904
0.201708
0.201366
0.200885
0.200268
0.199521
0.198649
0.197657
0.19655
0.195331
0.194004
0.192572
0.191036
0.189399
0.187662
0.185828
0.183909
0.181949
0.180067
0.178586
0.178241
0.179997
0.183504
0.186807
0.176458
0.185918
0.182856
0.17363
0.189765
0.184479
0.184171
0.184803
0.193012
0.189106
0.186615
0.186812
0.188559
0.185438
0.185737
0.187535
0.184468
0.188849
0.188462
0.185123
0.179841
0.17316
0.165653
0.157999
0.150591
0.143782
0.137827
0.132802
0.128527
0.124731
0.372927
0.443002
0.48038
0.497613
0.501861
0.498081
0.489399
0.477943
0.465788
0.45225
0.441516
0.438523
0.448091
0.472481
0.509516
0.552657
0.593754
0.623934
0.64099
0.649807
0.654862
0.659002
0.663178
0.667446
0.671706
0.675956
0.68028
0.684788
0.68957
0.69469
0.700177
0.706037
0.712255
0.718809
0.725669
0.732805
0.740187
0.74779
0.755589
0.763563
0.771691
0.779953
0.788329
0.796796
0.805329
0.8139
0.822477
0.831022
0.839493
0.84784
0.856009
0.863939
0.871562
0.878804
0.885588
0.891833
0.897455
0.902379
0.906308
0.909187
0.911002
0.911652
0.911029
0.909023
0.905534
0.900469
0.89375
0.885312
0.875111
0.863125
0.849355
0.833827
0.816597
0.797746
0.777385
0.75565
0.7327
0.708717
0.683901
0.658465
0.632629
0.606621
0.580667
0.554985
0.529789
0.505276
0.481629
0.459014
0.437574
0.417434
0.398695
0.381434
0.365705
0.351536
0.338933
0.327875
0.318319
0.310201
0.303441
0.297944
0.293606
0.290317
0.287967
0.286453
0.285554
0.28523
0.285425
0.286066
0.287084
0.288414
0.289998
0.291784
0.293724
0.295776
0.297903
0.300071
0.302252
0.304425
0.306523
0.308549
0.310492
0.312343
0.314094
0.315742
0.317284
0.31872
0.32005
0.321277
0.322404
0.323435
0.324374
0.325225
0.325993
0.326681
0.327293
0.327829
0.328291
0.328677
0.328984
0.329205
0.329336
0.329366
0.329288
0.329092
0.328769
0.328311
0.327698
0.326793
0.325041
0.32256
0.322368
0.318783
0.316171
0.314342
0.312862
0.306833
0.302932
0.301453
0.296347
0.291612
0.284167
0.278236
0.273969
0.26599
0.260672
0.25385
0.247537
0.241259
0.234944
0.227679
0.219478
0.210508
0.200981
0.191456
0.182552
0.174663
0.168102
0.163013
0.159253
0.15734
0.453905
0.528297
0.578931
0.606997
0.618885
0.620348
0.616106
0.610071
0.605996
0.603873
0.608704
0.626086
0.659312
0.703627
0.750944
0.792329
0.821636
0.837125
0.841527
0.839713
0.835932
0.832767
0.831311
0.831829
0.834265
0.838464
0.844231
0.851346
0.859572
0.868669
0.878409
0.888584
0.899016
0.909564
0.920118
0.930606
0.94098
0.951219
0.961318
0.971287
0.981143
0.990909
1.00061
1.01026
1.01989
1.02951
1.03912
1.04873
1.05832
1.06788
1.07739
1.08679
1.09605
1.10509
1.11386
1.12226
1.13022
1.13763
1.14421
1.14986
1.15445
1.15783
1.15982
1.16026
1.159
1.15587
1.15074
1.1435
1.13404
1.12229
1.10822
1.09182
1.07312
1.0522
1.02915
1.00412
0.977297
0.948882
0.919117
0.888263
0.856595
0.824403
0.791975
0.759599
0.727554
0.696101
0.665486
0.635927
0.607622
0.580737
0.555413
0.531763
0.509871
0.489796
0.471568
0.455191
0.440646
0.427887
0.416848
0.407439
0.399557
0.393085
0.387899
0.383767
0.380593
0.378285
0.376739
0.375852
0.375528
0.375678
0.37622
0.37708
0.378194
0.379503
0.380956
0.382511
0.384131
0.385785
0.38743
0.389032
0.390568
0.392024
0.393388
0.394656
0.395821
0.396884
0.397845
0.398706
0.399471
0.400146
0.400735
0.401244
0.401681
0.40205
0.402356
0.402602
0.40279
0.402921
0.402991
0.402994
0.402923
0.402766
0.402509
0.402134
0.401616
0.400929
0.400037
0.398868
0.397247
0.395273
0.393372
0.390444
0.387283
0.383838
0.37985
0.374634
0.369491
0.364442
0.358287
0.351727
0.344157
0.3366
0.329046
0.320365
0.311901
0.302771
0.293387
0.283661
0.274001
0.264051
0.253699
0.242954
0.231885
0.220621
0.20967
0.19937
0.190083
0.182131
0.17566
0.170962
0.524233
0.621139
0.691184
0.729175
0.744849
0.747034
0.743351
0.740102
0.737978
0.741381
0.754266
0.778644
0.812917
0.851431
0.887019
0.913983
0.930066
0.93656
0.937
0.935282
0.934317
0.935668
0.939837
0.946717
0.955926
0.966991
0.979424
0.99277
1.00663
1.02065
1.03456
1.04817
1.06132
1.07394
1.086
1.0975
1.10849
1.11902
1.12916
1.13901
1.14864
1.15813
1.16756
1.177
1.18651
1.19615
1.20595
1.21594
1.22614
1.23654
1.24713
1.25789
1.26877
1.27971
1.29063
1.30145
1.31204
1.32228
1.33187
1.34064
1.3484
1.35497
1.36011
1.36362
1.36528
1.3649
1.36229
1.35727
1.3497
1.33946
1.32647
1.31069
1.29212
1.27081
1.24684
1.22034
1.1915
1.16054
1.12771
1.0933
1.05763
1.02102
0.983821
0.946366
0.90899
0.872014
0.835737
0.800433
0.766348
0.733696
0.702658
0.673383
0.645985
0.620552
0.597137
0.575767
0.556441
0.539132
0.523788
0.510333
0.49867
0.488684
0.480217
0.473044
0.467092
0.462248
0.458391
0.455402
0.453166
0.451572
0.450521
0.44992
0.449689
0.449752
0.450047
0.450517
0.451114
0.451795
0.452536
0.453268
0.453954
0.454571
0.455102
0.455537
0.455867
0.456091
0.456207
0.45622
0.456132
0.455952
0.455686
0.455343
0.454933
0.454464
0.453945
0.453383
0.452784
0.45215
0.451481
0.450775
0.450024
0.449217
0.448336
0.447361
0.446259
0.444999
0.443551
0.441876
0.43989
0.437552
0.434843
0.43159
0.427853
0.423564
0.418639
0.412948
0.406962
0.400643
0.393783
0.386454
0.378593
0.370366
0.361804
0.352722
0.343319
0.333505
0.323374
0.312968
0.302362
0.291492
0.280335
0.268899
0.257206
0.245252
0.233261
0.221546
0.210385
0.200094
0.190941
0.183208
0.586819
0.72272
0.815641
0.863357
0.881838
0.883562
0.878
0.869229
0.862223
0.861849
0.870626
0.888395
0.912292
0.937716
0.960209
0.977126
0.988245
0.995252
1.00063
1.00658
1.01452
1.02499
1.03791
1.05288
1.06935
1.08677
1.10463
1.12248
1.13998
1.15686
1.17293
1.18808
1.20226
1.21549
1.22782
1.23933
1.25013
1.26035
1.27012
1.27957
1.28883
1.29803
1.30728
1.31668
1.32633
1.33631
1.34666
1.35745
1.3687
1.38042
1.3926
1.40522
1.41823
1.43155
1.44511
1.45878
1.47242
1.48588
1.49884
1.51111
1.52245
1.53263
1.54139
1.54847
1.55364
1.55663
1.55721
1.55516
1.55029
1.54243
1.53147
1.51731
1.49991
1.47929
1.4555
1.42866
1.39893
1.36652
1.33171
1.29479
1.25609
1.21598
1.17483
1.13304
1.09098
1.04903
1.00755
0.966873
0.927289
0.889068
0.85244
0.817596
0.78469
0.753842
0.725135
0.698622
0.674324
0.652236
0.632321
0.61452
0.59875
0.584913
0.572735
0.562126
0.552986
0.545193
0.538619
0.533129
0.528594
0.524887
0.52189
0.519492
0.517593
0.516102
0.514936
0.514026
0.513307
0.512723
0.512264
0.511838
0.511388
0.510875
0.510275
0.509569
0.508747
0.507802
0.506733
0.505543
0.504238
0.502825
0.501317
0.499726
0.498064
0.496347
0.494589
0.492802
0.490998
0.489186
0.487371
0.485555
0.483735
0.481903
0.480043
0.478134
0.476147
0.47405
0.471816
0.469403
0.466734
0.463721
0.460302
0.456422
0.45203
0.447051
0.441435
0.435102
0.428404
0.421366
0.413953
0.406166
0.398008
0.389502
0.380685
0.371526
0.362046
0.352268
0.342244
0.332003
0.321535
0.310816
0.299837
0.288596
0.277084
0.265251
0.25308
0.240839
0.22871
0.216936
0.205796
0.195587
0.630339
0.817016
0.938212
0.997851
1.02042
1.02145
1.00889
0.990746
0.974437
0.964691
0.963553
0.970509
0.983145
0.998334
1.01349
1.02732
1.03991
1.05215
1.06517
1.0798
1.09641
1.1149
1.13492
1.15598
1.17754
1.19913
1.22031
1.24075
1.26021
1.2785
1.29554
1.3113
1.32581
1.33914
1.35141
1.36275
1.37331
1.38327
1.3928
1.40206
1.41121
1.42042
1.42982
1.43954
1.44969
1.46037
1.47166
1.48361
1.49627
1.50965
1.52375
1.53852
1.55393
1.56989
1.58629
1.60301
1.61989
1.6367
1.65319
1.66911
1.68422
1.69823
1.71087
1.72184
1.73086
1.73764
1.74189
1.74335
1.74179
1.737
1.72879
1.71704
1.70166
1.68262
1.65994
1.6337
1.60404
1.57114
1.53527
1.49673
1.45585
1.41302
1.36865
1.32316
1.27698
1.23054
1.18425
1.13849
1.09364
1.05
1.00786
0.967472
0.929024
0.89268
0.858559
0.826745
0.797289
0.770207
0.745488
0.723089
0.702938
0.684911
0.668754
0.654408
0.641772
0.630723
0.621127
0.61284
0.60572
0.599623
0.594415
0.589966
0.586154
0.582871
0.580014
0.577496
0.575237
0.573167
0.571253
0.569432
0.567608
0.565724
0.563741
0.561633
0.559383
0.556981
0.554422
0.551711
0.548853
0.54586
0.542746
0.539531
0.536232
0.532873
0.529473
0.526056
0.52264
0.519243
0.51588
0.51256
0.509289
0.506064
0.502876
0.499709
0.496537
0.493332
0.490062
0.486677
0.483097
0.479228
0.475001
0.47036
0.465233
0.459548
0.453261
0.446304
0.43892
0.43129
0.4234
0.415254
0.406872
0.398265
0.389463
0.380468
0.371277
0.361915
0.352417
0.342795
0.333019
0.323049
0.312857
0.302413
0.291672
0.280546
0.268904
0.256876
0.244582
0.232187
0.21994
0.208115
0.652011
0.898117
1.0474
1.11949
1.14711
1.14478
1.12539
1.09933
1.07424
1.05517
1.04455
1.04241
1.04719
1.05678
1.0694
1.08397
1.10013
1.1179
1.13741
1.15865
1.18142
1.20535
1.22998
1.25483
1.27944
1.30342
1.32644
1.34824
1.36867
1.38762
1.40507
1.42104
1.43561
1.4489
1.46106
1.47225
1.48268
1.49252
1.50197
1.51124
1.5205
1.52993
1.5397
1.54994
1.5608
1.57238
1.58476
1.59803
1.61222
1.62735
1.64341
1.66038
1.67818
1.69675
1.71595
1.73564
1.75567
1.77577
1.79572
1.81526
1.83411
1.85198
1.86857
1.88356
1.89662
1.90744
1.91569
1.92108
1.92331
1.92214
1.91734
1.90872
1.89614
1.87953
1.85886
1.83416
1.80552
1.77311
1.73716
1.69794
1.6558
1.61113
1.56434
1.51589
1.46626
1.4159
1.3653
1.31489
1.2651
1.21631
1.16886
1.12305
1.07913
1.03731
0.997759
0.960589
0.925887
0.8937
0.864042
0.836899
0.812233
0.789772
0.769436
0.75115
0.734813
0.720301
0.707476
0.696188
0.686284
0.677605
0.67
0.66332
0.657423
0.652179
0.647467
0.643177
0.639211
0.635484
0.631924
0.628517
0.62513
0.621679
0.618109
0.614382
0.610472
0.606364
0.602052
0.597538
0.592828
0.587938
0.582888
0.5777
0.572402
0.567025
0.561599
0.556158
0.550731
0.54535
0.54004
0.534824
0.529719
0.524732
0.519865
0.515111
0.510451
0.50586
0.501304
0.496726
0.492045
0.487168
0.482017
0.476519
0.470593
0.464168
0.457192
0.449617
0.441551
0.433339
0.42498
0.41649
0.407902
0.399241
0.390543
0.381821
0.373072
0.364313
0.355558
0.346805
0.338011
0.329118
0.320066
0.310793
0.301216
0.29121
0.280601
0.26934
0.257512
0.245217
0.232669
0.220106
0.630896
0.957992
1.1326
1.21609
1.24655
1.24409
1.22259
1.19266
1.16242
1.13747
1.12083
1.11325
1.1139
1.12122
1.13367
1.15001
1.16939
1.19125
1.21512
1.24055
1.26709
1.29424
1.32152
1.34849
1.37474
1.39995
1.42386
1.44629
1.46711
1.48628
1.50382
1.51978
1.53427
1.54744
1.55946
1.57052
1.58083
1.5906
1.60004
1.60936
1.61878
1.62847
1.63863
1.64941
1.66095
1.67337
1.68679
1.70126
1.71684
1.73355
1.75139
1.77032
1.79028
1.81118
1.8329
1.85528
1.87815
1.90127
1.92441
1.94732
1.96972
1.99131
2.01176
2.03074
2.04789
2.06288
2.07535
2.08496
2.09139
2.09434
2.09352
2.08871
2.07972
2.06639
2.04865
2.02647
1.99989
1.96904
1.93408
1.89527
1.85293
1.80743
1.7592
1.7087
1.65643
1.60292
1.54866
1.49418
1.43994
1.3864
1.33397
1.28301
1.23383
1.1867
1.14181
1.09935
1.05943
1.02214
0.987526
0.955588
0.926287
0.899351
0.874754
0.852433
0.832292
0.814211
0.798049
0.783652
0.770855
0.75949
0.749385
0.740375
0.732298
0.725001
0.71834
0.712185
0.706414
0.700921
0.695605
0.690473
0.685385
0.680228
0.674922
0.669415
0.663671
0.657668
0.651394
0.644849
0.638042
0.63099
0.623716
0.616252
0.608632
0.600898
0.593091
0.585258
0.577443
0.569692
0.562047
0.554547
0.547223
0.540102
0.5332
0.526522
0.520062
0.513801
0.507706
0.50172
0.495762
0.489737
0.483555
0.477125
0.470355
0.463162
0.455487
0.447286
0.438562
0.429737
0.420877
0.412004
0.403166
0.394413
0.385795
0.377338
0.369048
0.360935
0.352998
0.345217
0.337535
0.329873
0.322143
0.314245
0.306056
0.297421
0.288141
0.278029
0.267111
0.255446
0.243219
0.230636
0.592071
0.973937
1.18102
1.27836
1.31649
1.31851
1.29936
1.27016
1.23935
1.2129
1.19429
1.18482
1.18417
1.19116
1.20432
1.22229
1.24395
1.26839
1.29484
1.32266
1.35127
1.38013
1.40875
1.43673
1.46371
1.4894
1.5136
1.53615
1.55697
1.57606
1.59344
1.60919
1.62345
1.63637
1.64815
1.65897
1.66906
1.67866
1.68798
1.69724
1.70667
1.71647
1.72683
1.73792
1.7499
1.7629
1.77703
1.79237
1.80897
1.82687
1.84606
1.86652
1.88818
1.91095
1.9347
1.9593
1.98454
2.01021
2.03612
2.06202
2.08763
2.11264
2.13673
2.15954
2.18072
2.19989
2.21668
2.23073
2.24166
2.24914
2.25285
2.25249
2.24782
2.23863
2.22478
2.20616
2.18276
2.15463
2.12187
2.0847
2.04337
1.99824
1.94971
1.89825
1.84438
1.78863
1.73157
1.67375
1.61572
1.55801
1.50108
1.44537
1.39126
1.33908
1.28909
1.24152
1.19652
1.15424
1.11475
1.0781
1.04415
1.01276
0.983922
0.957572
0.933626
0.911968
0.892457
0.874935
0.859229
0.845158
0.832537
0.82118
0.810907
0.801541
0.792916
0.784876
0.777279
0.769997
0.762916
0.755959
0.749096
0.742157
0.735035
0.727658
0.719975
0.711955
0.703582
0.694851
0.685771
0.676359
0.666645
0.656664
0.646461
0.636086
0.625595
0.615047
0.604504
0.594029
0.583683
0.573525
0.563609
0.553983
0.544683
0.535735
0.52715
0.518923
0.511027
0.50341
0.495994
0.488682
0.48137
0.473948
0.466305
0.458338
0.449967
0.441135
0.43181
0.422339
0.412934
0.403613
0.39444
0.385493
0.376846
0.368549
0.360626
0.353085
0.345919
0.339091
0.332528
0.326128
0.31977
0.313318
0.306609
0.299454
0.291629
0.282888
0.27315
0.262452
0.250959
0.238857
0.600657
0.996387
1.21053
1.31612
1.3618
1.37057
1.3572
1.33268
1.30537
1.28128
1.26413
1.25554
1.2556
1.26339
1.27762
1.29692
1.32007
1.34602
1.37389
1.40295
1.43256
1.46217
1.49132
1.51961
1.54672
1.57239
1.59645
1.61876
1.63928
1.658
1.67497
1.69029
1.7041
1.71656
1.72786
1.73822
1.74787
1.75703
1.76595
1.77486
1.78398
1.79353
1.80371
1.8147
1.82668
1.83977
1.8541
1.86977
1.88684
1.90534
1.92528
1.94665
1.96938
1.99339
2.01857
2.04475
2.07177
2.09942
2.12754
2.15592
2.18427
2.2123
2.23968
2.26606
2.29106
2.3143
2.3354
2.35396
2.3696
2.38193
2.3906
2.39526
2.39562
2.3914
2.38238
2.36839
2.34933
2.32516
2.29593
2.26174
2.22281
2.17941
2.13193
2.0808
2.02652
1.96967
1.91082
1.8506
1.7896
1.72843
1.66762
1.60771
1.54913
1.4923
1.43754
1.38514
1.33531
1.28824
1.24405
1.20283
1.16436
1.12863
1.09565
1.06537
1.03771
1.01255
0.989766
0.969188
0.950639
0.933926
0.91885
0.905208
0.892797
0.881421
0.870889
0.861021
0.851649
0.842621
0.833798
0.825056
0.816413
0.807688
0.79874
0.789476
0.779827
0.769752
0.759224
0.748235
0.736791
0.72491
0.712622
0.699969
0.687003
0.673784
0.66038
0.646863
0.633314
0.619813
0.606445
0.593292
0.580433
0.567943
0.555886
0.544316
0.533269
0.522761
0.512782
0.503294
0.494223
0.485474
0.47693
0.468458
0.459922
0.45119
0.44215
0.432719
0.422841
0.412731
0.402753
0.392916
0.383304
0.374023
0.365181
0.356862
0.34912
0.341978
0.335429
0.329428
0.323885
0.318672
0.313635
0.308594
0.303347
0.297669
0.291312
0.284008
0.275566
0.266006
0.255476
0.244154
0.612502
1.00447
1.22238
1.33438
1.3877
1.40459
1.39925
1.38211
1.36118
1.34224
1.329
1.32326
1.32538
1.33476
1.3503
1.37076
1.39495
1.42181
1.45044
1.48007
1.51006
1.53987
1.56905
1.59721
1.62406
1.64937
1.67296
1.69474
1.71467
1.73275
1.74904
1.76364
1.7767
1.78839
1.7989
1.80845
1.81728
1.82562
1.83372
1.84181
1.85014
1.85892
1.86837
1.87868
1.89004
1.90259
1.91647
1.93178
1.9486
1.96699
1.98696
2.0085
2.03158
2.05611
2.08199
2.10907
2.13718
2.16616
2.19588
2.22614
2.25669
2.28724
2.31746
2.347
2.3755
2.40256
2.42779
2.4508
2.47117
2.48851
2.50241
2.51252
2.51846
2.51992
2.5166
2.50825
2.49468
2.47576
2.45142
2.42167
2.38664
2.34651
2.30159
2.25225
2.19899
2.14236
2.08296
2.02144
1.95848
1.89473
1.83083
1.76739
1.70494
1.64396
1.58487
1.52802
1.4737
1.42214
1.37349
1.32789
1.28512
1.24526
1.20832
1.17428
1.14307
1.11458
1.08867
1.06518
1.04393
1.0247
1.0073
0.9915
0.977077
0.963814
0.951496
0.93992
0.928891
0.918232
0.907778
0.897384
0.887001
0.876549
0.865837
0.854742
0.843179
0.831089
0.818438
0.805209
0.791402
0.777036
0.76214
0.74676
0.730952
0.714783
0.698333
0.681688
0.664942
0.648197
0.631557
0.61513
0.599025
0.583346
0.568194
0.553655
0.539802
0.526681
0.514314
0.502683
0.491733
0.481371
0.471472
0.461883
0.452434
0.442956
0.433292
0.423317
0.41295
0.402254
0.391702
0.381304
0.371153
0.361388
0.352154
0.34358
0.335764
0.328762
0.322584
0.317188
0.312472
0.308282
0.304424
0.300674
0.296785
0.292492
0.287521
0.281598
0.274454
0.266073
0.256594
0.24619
0.618958
1.00183
1.22102
1.33825
1.39904
1.42469
1.42858
1.42041
1.4076
1.39554
1.38776
1.38616
1.3913
1.40286
1.41999
1.44163
1.46669
1.49419
1.52325
1.55313
1.58318
1.61289
1.64181
1.66958
1.69591
1.7206
1.74349
1.76448
1.78354
1.80069
1.81599
1.82955
1.84151
1.85204
1.86134
1.86964
1.87717
1.88418
1.89091
1.89761
1.90454
1.91191
1.91997
1.92891
1.93894
1.95021
1.96288
1.97707
1.99288
2.01038
2.0296
2.05056
2.07322
2.09752
2.12338
2.15067
2.17921
2.20885
2.23954
2.27108
2.30325
2.33574
2.36826
2.40046
2.43197
2.46242
2.49143
2.51858
2.54348
2.56571
2.58487
2.60057
2.61241
2.62002
2.62305
2.62118
2.61412
2.60163
2.58352
2.5597
2.53014
2.49492
2.45422
2.40835
2.35771
2.30282
2.2443
2.18281
2.11907
2.05381
1.98777
1.92162
1.85602
1.79153
1.72866
1.66785
1.60946
1.55377
1.50102
1.45131
1.40453
1.3608
1.32016
1.2826
1.24807
1.21646
1.18764
1.16144
1.13767
1.11613
1.09659
1.07881
1.06255
1.04757
1.03364
1.02052
1.00801
0.995887
0.983971
0.972094
0.960114
0.948056
0.935702
0.922899
0.909541
0.895552
0.880887
0.865518
0.849442
0.832669
0.815231
0.797171
0.778549
0.759438
0.739924
0.720103
0.700082
0.679978
0.659917
0.64003
0.620454
0.601328
0.582788
0.564963
0.547969
0.531899
0.516816
0.50274
0.489644
0.477453
0.466041
0.455237
0.444839
0.434628
0.424393
0.41395
0.403169
0.391997
0.38091
0.369941
0.359182
0.348795
0.33897
0.329887
0.3217
0.314517
0.308389
0.303293
0.299128
0.295716
0.292823
0.290173
0.287468
0.284399
0.280664
0.275977
0.27005
0.262799
0.254356
0.2449
0.62058
0.991669
1.21032
1.33177
1.39965
1.43418
1.44774
1.44925
1.4454
1.44112
1.43971
1.44305
1.45187
1.46609
1.4851
1.50806
1.53403
1.56213
1.59153
1.62153
1.65152
1.68099
1.70951
1.73674
1.76241
1.7863
1.80827
1.82824
1.84618
1.86211
1.87609
1.88823
1.89869
1.90762
1.91524
1.92178
1.92747
1.93256
1.93731
1.94199
1.94684
1.95212
1.95807
1.96492
1.97287
1.98211
1.99283
2.00515
2.01921
2.03508
2.05284
2.07251
2.09408
2.11751
2.14272
2.1696
2.19799
2.22775
2.25885
2.29111
2.3243
2.35816
2.39237
2.4266
2.46051
2.49374
2.52591
2.55663
2.58552
2.61219
2.63623
2.65727
2.6749
2.68873
2.69838
2.70346
2.70362
2.6985
2.6878
2.67126
2.64871
2.62005
2.58533
2.5447
2.49845
2.44704
2.39103
2.33108
2.26796
2.20246
2.13538
2.06753
1.99964
1.93241
1.86644
1.80226
1.74031
1.68097
1.62456
1.57105
1.5206
1.47333
1.42931
1.38853
1.35097
1.31651
1.28504
1.25638
1.23035
1.20672
1.18525
1.16571
1.14782
1.13134
1.11601
1.10156
1.08776
1.07438
1.06121
1.04805
1.03471
1.02121
1.00738
0.993044
0.978066
0.962354
0.945848
0.928513
0.910334
0.891319
0.871493
0.850898
0.829595
0.807658
0.785176
0.762252
0.739002
0.715554
0.692047
0.668633
0.645473
0.622737
0.600599
0.579233
0.558805
0.539465
0.52133
0.504479
0.488931
0.474645
0.461509
0.449346
0.437923
0.426971
0.41621
0.405385
0.394286
0.382774
0.371243
0.359742
0.34835
0.337246
0.326658
0.31682
0.307953
0.300236
0.293784
0.288619
0.284658
0.281713
0.279508
0.27771
0.275962
0.273908
0.271213
0.267576
0.262718
0.256487
0.249007
0.240463
0.618311
0.976204
1.19312
1.31801
1.39248
1.43559
1.45875
1.47
1.47534
1.47917
1.48454
1.49328
1.50622
1.52347
1.54467
1.56917
1.5962
1.62498
1.65478
1.68493
1.71485
1.74406
1.77215
1.79877
1.82367
1.84663
1.86753
1.88628
1.90286
1.91728
1.92961
1.93998
1.94851
1.95539
1.96084
1.96508
1.96835
1.97093
1.97309
1.97509
1.97721
1.97972
1.98288
1.98695
1.99216
1.99872
2.00684
2.01668
2.02839
2.04208
2.05784
2.07571
2.09572
2.11782
2.14197
2.16804
2.19591
2.22541
2.25652
2.28905
2.32279
2.35744
2.39272
2.42831
2.46387
2.49906
2.53353
2.56692
2.5989
2.6291
2.65717
2.68276
2.7055
2.72503
2.74096
2.75291
2.76044
2.76315
2.7606
2.75239
2.73815
2.7176
2.69055
2.65698
2.61701
2.57094
2.51924
2.46256
2.40165
2.33735
2.27056
2.20217
2.13304
2.06398
1.99571
1.92887
1.86399
1.80154
1.7419
1.6851
1.6314
1.58098
1.53394
1.49031
1.45004
1.41306
1.37924
1.34841
1.32038
1.29493
1.2718
1.25073
1.23146
1.21371
1.19719
1.18164
1.16679
1.15238
1.13818
1.12398
1.10956
1.0948
1.0797
1.06404
1.04765
1.03044
1.01231
0.993233
0.973178
0.952147
0.930159
0.907254
0.883489
0.858938
0.833691
0.807851
0.781538
0.754886
0.728043
0.701172
0.674451
0.648075
0.622248
0.597187
0.573111
0.55023
0.528733
0.508769
0.490429
0.47373
0.458598
0.444868
0.432288
0.42054
0.409274
0.398141
0.386839
0.375131
0.363298
0.351359
0.339368
0.32751
0.316039
0.305241
0.295408
0.286804
0.27963
0.273984
0.26983
0.266983
0.265137
0.263899
0.262848
0.261569
0.25969
0.256896
0.252928
0.247576
0.240957
0.233262
0.61316
0.957002
1.17143
1.29914
1.37964
1.43082
1.46315
1.48382
1.49815
1.51006
1.52231
1.53665
1.55397
1.57456
1.59823
1.62451
1.6528
1.68244
1.71276
1.74317
1.77311
1.80212
1.8298
1.85581
1.8799
1.90186
1.92157
1.93894
1.95394
1.96661
1.977
1.98523
1.99145
1.99585
1.99865
2.00008
2.00042
1.99993
1.99891
1.99766
1.99647
1.99564
1.99547
1.99623
1.9982
2.00162
2.00672
2.0137
2.02273
2.03396
2.04749
2.06338
2.08166
2.10231
2.12527
2.15044
2.17766
2.20678
2.23771
2.27025
2.30415
2.33914
2.3749
2.41114
2.44752
2.48373
2.51945
2.55436
2.58817
2.62058
2.65131
2.68006
2.70657
2.73054
2.75165
2.76955
2.78385
2.79409
2.79976
2.80032
2.79522
2.78394
2.76605
2.74123
2.70937
2.67056
2.6251
2.57355
2.51661
2.45516
2.39015
2.32258
2.25343
2.18362
2.11401
2.04535
1.97829
1.91337
1.85107
1.79152
1.73507
1.68196
1.63233
1.58623
1.54364
1.50449
1.46866
1.43599
1.40627
1.37928
1.35476
1.33244
1.31203
1.29325
1.27579
1.25937
1.2437
1.2285
1.21352
1.19851
1.18324
1.16752
1.15138
1.13462
1.11707
1.09858
1.07909
1.05852
1.03685
1.01408
0.990202
0.965265
0.939321
0.91244
0.88471
0.856233
0.827129
0.79753
0.767586
0.737464
0.70735
0.677449
0.647989
0.619218
0.591398
0.564803
0.539695
0.51631
0.494831
0.475362
0.457899
0.442319
0.428373
0.41571
0.403905
0.392513
0.381115
0.369366
0.35741
0.345179
0.332689
0.320109
0.307705
0.295807
0.284776
0.274966
0.266686
0.260135
0.255356
0.252202
0.250348
0.249349
0.248709
0.24795
0.246658
0.244498
0.241232
0.236617
0.230755
0.223841
0.605393
0.934732
1.1456
1.27584
1.36207
1.421
1.46217
1.49201
1.51518
1.53515
1.55439
1.57453
1.59652
1.62075
1.6472
1.67556
1.70537
1.73609
1.76713
1.79795
1.82804
1.85695
1.88428
1.90971
1.93298
1.95389
1.97231
1.98814
2.00137
2.01201
2.02015
2.02589
2.02939
2.03086
2.03052
2.02864
2.02549
2.02138
2.01663
2.01157
2.00654
2.00187
1.9979
1.99496
1.99334
1.99333
1.99521
1.9992
2.00551
2.01428
2.02565
2.03967
2.05638
2.07575
2.09771
2.12215
2.1489
2.17776
2.20855
2.24102
2.27489
2.30987
2.34565
2.38191
2.41834
2.45464
2.49052
2.5257
2.55993
2.59297
2.62463
2.65472
2.68308
2.70955
2.73395
2.75607
2.7756
2.79217
2.80527
2.81429
2.81851
2.81718
2.80956
2.79501
2.77307
2.7435
2.70637
2.66203
2.6111
2.55442
2.49298
2.42782
2.3601
2.29086
2.22106
2.15159
2.08322
2.01661
1.95228
1.89054
1.83184
1.7765
1.72471
1.67655
1.63201
1.59103
1.55352
1.51931
1.48819
1.45993
1.43427
1.41094
1.38962
1.37003
1.35185
1.33477
1.31848
1.30271
1.28715
1.27156
1.25568
1.23929
1.22228
1.20462
1.18609
1.16656
1.14591
1.12409
1.10105
1.07677
1.05126
1.02456
0.996712
0.967784
0.93786
0.907043
0.875445
0.843197
0.810445
0.777351
0.744097
0.71089
0.677964
0.645582
0.61404
0.583656
0.554765
0.527694
0.502735
0.480105
0.459909
0.442104
0.426485
0.412691
0.400238
0.388577
0.377163
0.365528
0.353647
0.341312
0.328483
0.315288
0.301986
0.288932
0.276546
0.265275
0.255545
0.247682
0.241845
0.237956
0.235706
0.234603
0.234083
0.233594
0.232669
0.230952
0.22822
0.224219
0.219029
0.212848
0.612663
0.911579
1.11779
1.2507
1.34216
1.4079
1.45678
1.49464
1.52564
1.55283
1.57845
1.60402
1.63049
1.65832
1.6876
1.71817
1.74966
1.78164
1.81359
1.84502
1.87544
1.90442
1.93157
1.95658
1.97917
1.99915
2.01636
2.03072
2.0422
2.05083
2.05668
2.05987