/*--------------------------------*- C++ -*----------------------------------*\
  =========                 |
  \\      /  F ield         | OpenFOAM: The Open Source CFD Toolbox
   \\    /   O peration     | Website:  https://openfoam.org
    \\  /    A nd           | Version:  9
     \\/     M anipulation  |
\*---------------------------------------------------------------------------*/
FoamFile
{
    format      ascii;
    class       volScalarField;
    location    "0.13";
    object      nut;
}
// * * * * * * * * * * * * * * * * * * * * * * * * * * * * * * * * * * * * * //

dimensions      [0 2 -1 0 0 0 0];

internalField   nonuniform List<scalar> 
12225
(
3.04475e-05
1.83286e-05
1.18587e-05
8.44864e-06
6.58654e-06
5.48677e-06
4.77086e-06
4.26797e-06
3.90368e-06
3.64145e-06
3.45532e-06
3.32123e-06
3.21779e-06
3.13114e-06
3.06581e-06
3.12344e-06
4.49124e-06
1.7526e-05
0.000163457
0.000102138
8.2264e-05
7.29503e-05
6.74446e-05
6.34865e-05
6.02398e-05
5.75232e-05
5.53456e-05
5.36939e-05
5.24793e-05
5.15652e-05
5.08272e-05
5.02365e-05
5.00057e-05
5.04518e-05
4.96679e-05
6.24266e-05
0.000340328
0.000221331
0.000179119
0.000157403
0.000143711
0.000133883
0.000126302
0.000120457
0.00011619
0.000113309
0.000111475
0.000110253
0.000109246
0.000108227
0.000107114
0.000104407
9.24887e-05
0.000100307
0.000504522
0.00035068
0.000285727
0.000249819
0.000226363
0.000209356
0.000196353
0.000186448
0.000179278
0.000174468
0.000171434
0.000169421
0.00016767
0.000165517
0.000161895
0.000152158
0.000128041
0.000129664
0.000629421
0.000472422
0.0003921
0.000343887
0.000311094
0.000286855
0.000268182
0.000253864
0.000243366
0.000236169
0.000231488
0.00022828
0.000225389
0.000221535
0.000214255
0.000195947
0.000159356
0.000152719
0.00071462
0.000576355
0.000491006
0.000434798
0.000394626
0.000364106
0.000340214
0.00032164
0.000307774
0.000298016
0.00029144
0.000286765
0.000282438
0.000276459
0.000264862
0.000237915
0.00018994
0.000172523
0.000769134
0.000658723
0.000577609
0.000518682
0.000474091
0.000439027
0.000410962
0.000388752
0.000371835
0.000359614
0.000351097
0.00034482
0.000338861
0.000330478
0.000314342
0.000279494
0.000221615
0.000191799
0.000802646
0.000720219
0.000649475
0.000592744
0.000547062
0.000509678
0.000478942
0.000454096
0.000434765
0.000420438
0.000410131
0.000402264
0.000394591
0.000383691
0.000363168
0.000321599
0.000255516
0.000212688
0.000822726
0.000763948
0.000706279
0.000655418
0.000611732
0.000574386
0.000542728
0.000516518
0.000495663
0.000479813
0.000468056
0.000458761
0.00044943
0.000436091
0.000411644
0.000364772
0.000292351
0.000236832
0.000834565
0.00079383
0.000749252
0.000706339
0.000667046
0.000631883
0.000601072
0.000574893
0.000553567
0.000536949
0.000524246
0.000513838
0.000503059
0.000487557
0.000459903
0.00040927
0.000332501
0.000265489
0.000841485
0.000813603
0.000780518
0.000746152
0.000712723
0.00068141
0.000653013
0.000628218
0.000607526
0.000590994
0.000577974
0.000566904
0.000555041
0.000537849
0.000507901
0.0004551
0.000376034
0.000299542
0.000845188
0.000825302
0.000800661
0.000773649
0.000746084
0.00071924
0.000694138
0.000671669
0.000652502
0.000636843
0.000624169
0.000613
0.000600609
0.000582459
0.000551367
0.000497995
0.000418548
0.00033552
0.00084749
0.000833148
0.000815146
0.000794655
0.000772895
0.000750954
0.000729835
0.000710477
0.000693613
0.000679534
0.00066782
0.000657089
0.000644703
0.000626273
0.00059508
0.000542714
0.000465159
0.00037877
0.000849034
0.000838769
0.000826249
0.000811786
0.000795966
0.000779503
0.000763198
0.000747879
0.00073424
0.00072259
0.000712579
0.000702943
0.000691207
0.000673293
0.00064316
0.000593468
0.000520046
0.00043334
0.000849996
0.000842478
0.000834063
0.000824629
0.000814284
0.000803329
0.000792245
0.000781618
0.000771983
0.000763578
0.000756078
0.000748337
0.000738122
0.000721824
0.000694268
0.000649292
0.000582749
0.00050001
0.000850551
0.00084472
0.000839073
0.000833382
0.000827512
0.000821455
0.000815371
0.000809548
0.000804281
0.000799662
0.000795338
0.000790276
0.00078255
0.000769143
0.000745872
0.000707821
0.000651148
0.00057748
0.000850841
0.000845942
0.000841945
0.000838691
0.000835991
0.000833688
0.000831715
0.000830107
0.000828917
0.000828067
0.000827153
0.000825258
0.0008208
0.000811419
0.000793963
0.000764766
0.000720611
0.00066096
0.000850962
0.000846479
0.000843286
0.000841319
0.000840434
0.000840446
0.000841189
0.000842544
0.000844402
0.000846561
0.000848595
0.000849729
0.000848741
0.00084392
0.000833082
0.000813735
0.000783523
0.000741195
0.000850945
0.000846463
0.000843348
0.000841611
0.000841177
0.000841901
0.000843617
0.000846165
0.000849378
0.000853025
0.000856732
0.000859907
0.000861694
0.000860964
0.000856352
0.000846351
0.000829506
0.000804792
0.000850722
0.000845611
0.000841524
0.000838556
0.00083677
0.000836162
0.000836663
0.000838165
0.000840524
0.000843541
0.000846922
0.000850237
0.000852892
0.000854137
0.000853084
0.000848784
0.000840338
0.000827102
0.000850143
0.00084339
0.000836852
0.000830916
0.000825993
0.000822357
0.000820106
0.000819197
0.000819494
0.000820797
0.000822843
0.000825295
0.00082772
0.000829598
0.000830331
0.00082929
0.000825897
0.000819763
0.000848604
0.000837785
0.000825793
0.000813964
0.000803447
0.000794919
0.000788599
0.000784386
0.000782022
0.000781189
0.000781557
0.00078279
0.000784533
0.000786398
0.000787962
0.000788788
0.000788478
0.000786768
0.000844661
0.000824711
0.000802288
0.000780872
0.000762488
0.000747935
0.000737177
0.000729745
0.000725027
0.000722434
0.000721469
0.000721727
0.000722867
0.000724575
0.000726541
0.000728452
0.000730015
0.000731017
0.000835002
0.000796907
0.00075783
0.000723894
0.000697172
0.000677296
0.000663277
0.000653895
0.000648003
0.00064466
0.000643171
0.000643048
0.000643954
0.000645633
0.000647864
0.000650429
0.000653111
0.000655721
0.000812472
0.000743469
0.000683687
0.000637958
0.000605293
0.000583073
0.000568357
0.000559068
0.00055356
0.000550624
0.000549441
0.000549503
0.000550506
0.000552268
0.000554654
0.000557536
0.000560768
0.00056418
0.000763142
0.000652027
0.000575084
0.000524005
0.000490799
0.000470211
0.000457721
0.000450444
0.000446537
0.000444752
0.000444305
0.00044476
0.000445901
0.000447637
0.000449922
0.00045271
0.000455922
0.00045942
0.00066449
0.000515749
0.000436263
0.000390229
0.000362832
0.000347098
0.000338811
0.000334484
0.000332512
0.000331881
0.000332011
0.000332618
0.000333608
0.000334977
0.000336753
0.000338953
0.000341555
0.000344462
0.000493447
0.000344356
0.0002826
0.000250508
0.000232805
0.000223496
0.00021931
0.000217468
0.000216781
0.000216661
0.00021681
0.000217118
0.000217586
0.000218262
0.000219204
0.000220454
0.000222021
0.000223852
0.000262049
0.000170709
0.000137724
0.000121372
0.000112727
0.000108443
0.000106551
0.000105715
0.000105248
0.000104978
0.000104819
0.000104743
0.000104761
0.000104899
0.000105187
0.000105646
0.000106284
0.000107081
5.95937e-05
4.2524e-05
3.13906e-05
2.41647e-05
1.95243e-05
1.65803e-05
1.47263e-05
1.35854e-05
1.28698e-05
1.23936e-05
1.20615e-05
1.18264e-05
1.16661e-05
1.15702e-05
1.15336e-05
1.1552e-05
1.16212e-05
1.17347e-05
7.21686e-05
6.23482e-05
6.49014e-05
6.61998e-05
6.66217e-05
6.64061e-05
6.56801e-05
6.44966e-05
6.28411e-05
6.1308e-05
5.97884e-05
5.82885e-05
5.69241e-05
5.59125e-05
5.55e-05
5.5796e-05
5.66282e-05
5.75771e-05
5.82229e-05
5.84338e-05
5.83351e-05
5.84653e-05
5.95439e-05
6.0986e-05
6.25866e-05
6.42493e-05
6.59245e-05
6.75828e-05
6.92059e-05
7.07826e-05
7.23063e-05
7.37733e-05
7.51822e-05
7.65331e-05
7.78267e-05
7.90642e-05
8.02473e-05
8.13773e-05
8.24557e-05
8.34838e-05
8.44624e-05
8.53924e-05
8.62743e-05
8.71084e-05
8.78946e-05
8.8633e-05
8.93232e-05
8.99646e-05
9.05568e-05
9.10989e-05
9.15902e-05
9.20299e-05
9.24173e-05
9.27517e-05
9.30328e-05
9.32604e-05
9.34348e-05
9.35577e-05
9.36564e-05
9.37116e-05
9.36905e-05
9.35921e-05
9.34141e-05
9.31537e-05
9.28077e-05
9.23728e-05
9.18462e-05
9.12252e-05
9.05077e-05
8.96919e-05
8.8777e-05
8.7763e-05
8.66507e-05
8.5442e-05
8.414e-05
8.2749e-05
8.12747e-05
7.97242e-05
7.81059e-05
7.64295e-05
7.47062e-05
7.29485e-05
7.117e-05
6.9385e-05
6.7609e-05
6.58577e-05
6.41468e-05
6.24921e-05
6.09084e-05
5.94096e-05
5.80077e-05
5.67127e-05
5.55324e-05
5.44716e-05
5.35324e-05
5.27143e-05
5.20144e-05
5.14276e-05
5.09474e-05
5.05657e-05
5.02742e-05
5.00641e-05
4.9927e-05
4.98552e-05
4.98442e-05
4.98783e-05
4.99459e-05
5.004e-05
5.01541e-05
5.02819e-05
5.04178e-05
5.05568e-05
5.06945e-05
5.08271e-05
5.09516e-05
5.10659e-05
5.11685e-05
5.12585e-05
5.13454e-05
5.14143e-05
5.14644e-05
5.14954e-05
5.1507e-05
5.14989e-05
5.14712e-05
5.14239e-05
5.13574e-05
5.12719e-05
5.11679e-05
5.1046e-05
5.09067e-05
5.07505e-05
5.05781e-05
5.03898e-05
5.01864e-05
4.9968e-05
4.97352e-05
4.94881e-05
4.92271e-05
4.89523e-05
4.86641e-05
4.83631e-05
4.80521e-05
4.77392e-05
4.74407e-05
4.71776e-05
4.69255e-05
4.65245e-05
4.60389e-05
4.73646e-05
4.51796e-05
4.65381e-05
4.59611e-05
4.30703e-05
0.000216778
4.53029e-05
4.52404e-05
0.00020839
0.000218264
0.000209475
4.52962e-05
4.50686e-05
0.000202921
4.48888e-05
0.00019731
0.000199719
0.000193866
0.000196855
0.000196385
0.000192497
0.000186472
0.000178968
0.000170518
0.000161875
0.000153441
0.000145593
0.000138625
0.000132673
0.000127627
0.000123273
0.000113997
0.000187661
0.000240127
0.000276375
0.000299456
0.000311804
0.00031547
0.000312182
0.000303259
0.000285296
0.000266787
0.000253723
0.000249762
0.000255514
0.000268379
0.000283628
0.00029649
0.00030393
0.00030616
0.00030537
0.000303645
0.000302329
0.000302214
0.000303466
0.00030593
0.000309419
0.000313784
0.000318916
0.000324726
0.000331137
0.000338085
0.000345514
0.000353378
0.000361641
0.000370281
0.000379282
0.000388643
0.000398368
0.00040847
0.000418966
0.000429876
0.000441222
0.000453025
0.000465302
0.000478065
0.000491323
0.000505072
0.000519301
0.000533986
0.000549087
0.000564545
0.000580283
0.000596196
0.00061215
0.000627975
0.00064346
0.000658351
0.000672376
0.000684735
0.000696256
0.000707404
0.000718146
0.000728394
0.000738051
0.000747015
0.000755179
0.000762438
0.000768683
0.00077381
0.000777715
0.0007803
0.000781472
0.000781148
0.000779252
0.000775722
0.000770506
0.000763568
0.000754887
0.000744462
0.000732306
0.000718459
0.000702978
0.000685947
0.000667476
0.000647703
0.000626795
0.000604951
0.000582401
0.000559405
0.000536249
0.000513236
0.000490677
0.000468878
0.000448121
0.000428653
0.00041067
0.000394309
0.000379649
0.000366704
0.000355442
0.000345785
0.000337626
0.000330841
0.000325302
0.000320493
0.000316695
0.00031395
0.000312172
0.000311256
0.000311101
0.000311609
0.000312685
0.000314238
0.000316175
0.000318403
0.000320821
0.000323326
0.000325809
0.0003281
0.000330438
0.000332811
0.000335205
0.000337606
0.000340005
0.000342392
0.000344765
0.000347119
0.000349453
0.000351769
0.000354067
0.00035635
0.000358622
0.000360887
0.000363148
0.000365409
0.000367673
0.00036994
0.000372212
0.000374484
0.000376751
0.000379002
0.000381219
0.000383372
0.000385396
0.000387131
0.000388167
0.00038765
0.000385071
0.000383545
0.000381304
0.000380786
0.000376274
0.000374552
0.000370685
0.000413231
0.00036018
0.000353396
0.000390287
0.000410873
0.00038053
0.000335943
0.000326395
0.000355095
0.000313977
0.000338495
0.000353825
0.000336659
0.000376066
0.000394697
0.000395637
0.000387093
0.000373069
0.000354873
0.000334133
0.000312952
0.000292206
0.000272688
0.000255028
0.000239409
0.00022629
0.000139716
0.00024304
0.000327913
0.000392057
0.000437022
0.000464655
0.000477254
0.000477389
0.000467746
0.000449446
0.000429829
0.000415976
0.000412628
0.000419909
0.00043313
0.000447318
0.000459107
0.000467443
0.000473194
0.000478145
0.000484037
0.00049204
0.000502724
0.000516175
0.000532217
0.000550564
0.0005709
0.0005929
0.000616249
0.000640654
0.000665854
0.000691631
0.000717808
0.000744257
0.000770893
0.000797668
0.000824569
0.000851603
0.000878797
0.000906187
0.000933813
0.000961712
0.000989916
0.00101845
0.00104732
0.00107652
0.00110602
0.0011358
0.00116578
0.00119588
0.00122601
0.00125602
0.00128578
0.00131511
0.00134384
0.00137176
0.0013987
0.00142445
0.0014487
0.0014721
0.00149474
0.00151653
0.00153731
0.00155689
0.00157512
0.00159179
0.00160672
0.00161973
0.00163064
0.00163927
0.00164545
0.00164901
0.00164982
0.00164774
0.00164265
0.00163445
0.00162307
0.00160846
0.00159058
0.00156944
0.00154507
0.00151753
0.00148694
0.00145344
0.00141723
0.00137856
0.00133773
0.00129511
0.00125111
0.00120622
0.00116094
0.00111582
0.00107143
0.00102832
0.000987028
0.000948009
0.000911657
0.00087827
0.000848044
0.000821075
0.000797359
0.000776817
0.000759307
0.000744217
0.000731641
0.00072159
0.000713879
0.000708271
0.000704514
0.000702363
0.000701578
0.000701933
0.000703211
0.000705209
0.000707736
0.000710616
0.000713692
0.00071683
0.000720014
0.000723255
0.000726497
0.00072969
0.000732797
0.00073579
0.000738649
0.000741361
0.000743921
0.000746327
0.000748583
0.000750697
0.000752679
0.000754542
0.000756302
0.000757973
0.00075957
0.000761106
0.000762591
0.000764031
0.000765427
0.000766773
0.000768054
0.000769242
0.000770296
0.000771148
0.000771677
0.000771661
0.000770794
0.000769253
0.000768597
0.000766342
0.00076049
0.000757714
0.000752124
0.000742863
0.000746142
0.000725907
0.00071389
0.000709668
0.000706253
0.000686698
0.000668007
0.000653543
0.000644812
0.000625012
0.000615017
0.000607155
0.000593521
0.00059761
0.000596682
0.000587323
0.000571176
0.000549684
0.000523563
0.000493167
0.000460747
0.000427475
0.000394515
0.000363062
0.000334008
0.000308352
0.000162669
0.000295093
0.000405717
0.000488784
0.000546376
0.000580182
0.00059399
0.000592647
0.000579624
0.000561985
0.000546635
0.000538657
0.000540035
0.000549475
0.000563691
0.000579589
0.000595468
0.000611202
0.000627718
0.000646284
0.000667952
0.000693297
0.00072241
0.00075501
0.000790596
0.000828566
0.000868301
0.000909218
0.000950799
0.000992613
0.00103432
0.00107566
0.00111648
0.00115667
0.0011962
0.00123508
0.00127335
0.00131107
0.00134831
0.00138515
0.00142166
0.0014579
0.00149394
0.00152981
0.00156552
0.0016011
0.00163653
0.00167179
0.00170683
0.0017416
0.00177604
0.00181005
0.00184356
0.00187646
0.00190863
0.00193998
0.00197039
0.00199973
0.00202796
0.00205532
0.00208177
0.00210717
0.00213136
0.00215416
0.00217537
0.0021948
0.00221224
0.0022275
0.00224039
0.0022507
0.00225827
0.00226291
0.00226446
0.00226278
0.00225772
0.00224918
0.00223705
0.00222126
0.00220176
0.00217853
0.00215157
0.00212091
0.00208665
0.00204889
0.0020078
0.00196361
0.00191661
0.00186713
0.00181559
0.00176247
0.0017083
0.00165367
0.00159919
0.00154551
0.00149325
0.00144301
0.00139534
0.0013507
0.00130947
0.00127192
0.00123819
0.00120833
0.00118217
0.00115931
0.00113993
0.0011239
0.00111098
0.00110087
0.00109326
0.00108782
0.00108423
0.00108219
0.00108141
0.00108161
0.00108256
0.00108405
0.00108587
0.00108788
0.00109013
0.00109245
0.00109471
0.00109683
0.00109875
0.00110042
0.00110181
0.0011029
0.00110369
0.00110418
0.00110437
0.00110429
0.00110395
0.00110339
0.00110263
0.00110171
0.00110066
0.0010995
0.00109826
0.00109696
0.00109562
0.00109423
0.0010928
0.00109129
0.00108968
0.0010879
0.00108587
0.00108348
0.00108059
0.00107722
0.00107363
0.0010686
0.00106137
0.0010548
0.00104584
0.00103428
0.00102443
0.00100822
0.000992191
0.000976442
0.00096131
0.000941537
0.000922318
0.000902399
0.000882401
0.000860801
0.000839994
0.000820373
0.000800467
0.000785291
0.000768697
0.000748297
0.000723712
0.00069501
0.00066229
0.000625472
0.000585649
0.000544256
0.000502301
0.000460978
0.00042145
0.000385246
0.000184643
0.000341384
0.000473526
0.000572285
0.000639387
0.000678476
0.000694881
0.000693725
0.00068202
0.00066764
0.000656965
0.000653808
0.000659176
0.000671986
0.000690313
0.00071256
0.000737987
0.000766636
0.000798932
0.000835277
0.000875798
0.000920276
0.000968192
0.00101883
0.00107141
0.00112513
0.00117928
0.00123327
0.00128661
0.00133893
0.00138998
0.0014396
0.00148773
0.00153434
0.00157947
0.00162319
0.0016656
0.0017068
0.00174691
0.00178604
0.0018243
0.00186179
0.00189859
0.00193478
0.00197043
0.00200559
0.00204028
0.00207455
0.00210841
0.00214185
0.00217486
0.00220744
0.00223954
0.00227113
0.00230215
0.00233254
0.00236222
0.00239109
0.00241921
0.00244664
0.00247332
0.00249911
0.00252384
0.00254735
0.00256944
0.00258992
0.00260861
0.0026253
0.00263981
0.00265193
0.00266149
0.0026683
0.00267219
0.002673
0.00267058
0.0026648
0.00265553
0.00264268
0.00262614
0.00260588
0.00258183
0.00255399
0.00252238
0.00248706
0.00244812
0.00240572
0.00236007
0.00231143
0.00226016
0.00220667
0.00215144
0.00209501
0.00203799
0.00198101
0.00192473
0.00186981
0.00181686
0.00176647
0.00171911
0.00167521
0.00163505
0.00159884
0.00156619
0.0015373
0.00151221
0.00149083
0.00147292
0.00145821
0.00144636
0.00143703
0.00142988
0.00142457
0.00142078
0.00141819
0.00141653
0.00141556
0.00141504
0.00141479
0.00141487
0.00141507
0.00141519
0.00141511
0.00141473
0.001414
0.00141287
0.00141131
0.00140931
0.00140689
0.00140405
0.00140082
0.00139724
0.00139334
0.00138916
0.00138477
0.0013802
0.00137551
0.00137073
0.00136592
0.0013611
0.0013563
0.00135151
0.00134675
0.00134197
0.00133715
0.00133221
0.00132708
0.00132162
0.00131572
0.00130927
0.00130174
0.00129282
0.00128316
0.0012716
0.00125794
0.0012431
0.00122514
0.00120578
0.00118531
0.0011642
0.00114112
0.00111746
0.00109255
0.00106676
0.00104026
0.0010133
0.000986439
0.000959576
0.000933719
0.000907053
0.000878297
0.000846795
0.000812221
0.000774399
0.000733164
0.000688599
0.000642197
0.000594759
0.000547288
0.000500911
0.000457323
0.000204669
0.000371926
0.000526907
0.000644441
0.000725039
0.000773639
0.000795677
0.000798524
0.000790918
0.00078096
0.00077493
0.000776497
0.000786857
0.000805586
0.000831648
0.000864091
0.000902276
0.000945791
0.000994248
0.00104714
0.00110379
0.0011634
0.00122506
0.00128789
0.00135106
0.00141385
0.00147564
0.00153597
0.00159449
0.00165097
0.00170525
0.00175729
0.00180707
0.00185466
0.00190013
0.00194362
0.00198525
0.00202517
0.00206353
0.00210048
0.00213617
0.00217075
0.00220434
0.00223709
0.00226909
0.00230046
0.0023313
0.00236168
0.00239168
0.00242136
0.00245075
0.00247989
0.00250878
0.00253743
0.0025658
0.00259386
0.00262156
0.00264875
0.00267561
0.00270213
0.00272823
0.00275376
0.00277858
0.00280253
0.00282543
0.0028471
0.00286735
0.00288598
0.00290282
0.00291766
0.00293032
0.00294061
0.00294835
0.00295337
0.0029555
0.00295459
0.00295049
0.00294306
0.00293217
0.00291772
0.00289962
0.00287778
0.00285215
0.00282273
0.00278952
0.00275259
0.00271205
0.00266809
0.00262095
0.00257096
0.00251854
0.00246415
0.00240836
0.00235178
0.00229505
0.00223886
0.00218386
0.00213069
0.00207995
0.00203213
0.00198764
0.00194669
0.00190917
0.00187537
0.00184539
0.00181916
0.00179653
0.00177726
0.00176105
0.00174759
0.00173652
0.00172749
0.00172018
0.00171425
0.0017094
0.00170535
0.00170186
0.00169872
0.00169584
0.00169318
0.00169047
0.00168752
0.00168422
0.00168048
0.00167625
0.00167148
0.00166618
0.00166033
0.00165395
0.00164709
0.00163977
0.00163206
0.001624
0.00161567
0.00160713
0.00159846
0.00158971
0.00158096
0.00157226
0.00156366
0.00155519
0.00154688
0.00153871
0.00153067
0.00152271
0.00151476
0.00150669
0.00149835
0.00148955
0.00147996
0.00146933
0.00145759
0.0014442
0.00142886
0.0014116
0.00139175
0.00136981
0.00134634
0.00132151
0.00129505
0.00126737
0.00123831
0.00120815
0.00117716
0.00114546
0.00111335
0.00108096
0.0010485
0.00101535
0.000980791
0.000944292
0.000905471
0.00086406
0.000819825
0.000772481
0.000723159
0.000672579
0.000621584
0.000571206
0.00052309
0.000218926
0.000384481
0.000567045
0.000707054
0.000804622
0.000864967
0.000896208
0.000907366
0.000907408
0.000904529
0.00090517
0.000913375
0.000930899
0.000957892
0.000993695
0.00103736
0.00108788
0.00114421
0.00120526
0.00126992
0.0013371
0.00140574
0.0014749
0.00154373
0.00161151
0.00167767
0.00174175
0.00180342
0.00186246
0.00191874
0.00197218
0.00202279
0.00207063
0.00211579
0.0021584
0.00219861
0.0022366
0.00227254
0.00230662
0.00233905
0.00237
0.00239968
0.00242827
0.00245595
0.00248289
0.00250924
0.00253515
0.00256075
0.00258616
0.00261147
0.00263675
0.00266208
0.00268747
0.00271295
0.0027385
0.00276409
0.00278966
0.00281514
0.00284068
0.00286625
0.00289178
0.00291715
0.00294221
0.00296681
0.00299078
0.00301395
0.00303615
0.00305719
0.00307688
0.00309504
0.00311149
0.00312603
0.00313848
0.00314866
0.00315638
0.00316148
0.00316377
0.0031631
0.00315928
0.00315217
0.00314161
0.00312747
0.00310962
0.00308796
0.00306242
0.00303296
0.00299959
0.0029624
0.00292153
0.0028772
0.00282974
0.00277953
0.00272708
0.00267295
0.00261776
0.00256221
0.00250697
0.00245273
0.00240016
0.00234985
0.00230233
0.00225764
0.00221615
0.00217816
0.00214382
0.00211313
0.00208602
0.0020623
0.00204174
0.00202403
0.00200887
0.0019959
0.0019848
0.00197522
0.00196685
0.00195939
0.00195256
0.00194614
0.00193991
0.00193395
0.00192798
0.00192176
0.00191515
0.00190804
0.00190036
0.00189205
0.00188309
0.00187349
0.00186325
0.00185242
0.00184104
0.00182917
0.00181688
0.00180426
0.00179139
0.00177837
0.00176528
0.00175222
0.00173928
0.00172654
0.00171406
0.00170189
0.00169008
0.00167862
0.0016675
0.00165666
0.001646
0.00163537
0.00162455
0.00161326
0.00160123
0.00158816
0.00157364
0.00155731
0.00153889
0.00151793
0.0014944
0.00146894
0.00144163
0.00141247
0.00138165
0.00134924
0.00131552
0.00128076
0.00124517
0.00120899
0.0011724
0.00113549
0.00109803
0.00105958
0.00101974
0.00097814
0.000934475
0.000888466
0.000839768
0.00078892
0.000736747
0.000683965
0.000631526
0.000580972
0.00021029
0.000357772
0.000583085
0.000754011
0.00087213
0.000948137
0.000992901
0.00101645
0.00102797
0.00103564
0.00104594
0.00106323
0.00108971
0.00112588
0.00117118
0.00122447
0.00128436
0.00134939
0.00141812
0.0014892
0.00156144
0.00163381
0.00170543
0.00177558
0.00184371
0.00190936
0.0019722
0.00203202
0.00208865
0.00214204
0.00219216
0.00223908
0.00228288
0.00232368
0.00236165
0.00239696
0.00242983
0.00246048
0.00248913
0.00251601
0.00254137
0.00256544
0.00258845
0.00261062
0.00263217
0.00265329
0.00267417
0.00269496
0.00271581
0.00273685
0.00275816
0.00277982
0.00280187
0.00282434
0.00284721
0.00287046
0.00289403
0.00291788
0.00294215
0.00296682
0.00299183
0.00301706
0.00304239
0.00306766
0.00309275
0.00311747
0.00314168
0.0031652
0.00318787
0.0032095
0.00322991
0.00324893
0.00326638
0.00328206
0.00329579
0.00330739
0.00331664
0.00332337
0.00332735
0.0033284
0.0033263
0.00332084
0.00331184
0.0032991
0.00328246
0.00326178
0.00323696
0.00320796
0.00317482
0.00313765
0.00309666
0.00305216
0.00300454
0.00295434
0.00290213
0.00284857
0.00279439
0.00274029
0.002687
0.00263518
0.00258541
0.00253789
0.00249315
0.00245154
0.00241329
0.00237851
0.00234717
0.00231917
0.00229434
0.00227242
0.00225313
0.00223615
0.00222115
0.0022078
0.00219575
0.00218471
0.00217437
0.00216447
0.00215474
0.00214524
0.00213575
0.00212602
0.00211586
0.00210515
0.00209377
0.00208167
0.00206881
0.00205518
0.0020408
0.00202571
0.00200994
0.00199358
0.00197671
0.00195943
0.00194183
0.00192405
0.00190619
0.00188839
0.00187076
0.00185343
0.0018365
0.00182007
0.00180422
0.00178901
0.00177445
0.00176052
0.00174715
0.00173422
0.00172151
0.00170875
0.00169564
0.0016818
0.0016668
0.0016502
0.00163157
0.00161046
0.00158645
0.00156005
0.00153136
0.00150041
0.00146735
0.00143237
0.00139577
0.00135788
0.00131903
0.00127953
0.00123964
0.00119952
0.00115908
0.00111806
0.00107612
0.00103291
0.000988064
0.000941267
0.000892203
0.000840876
0.000788184
0.000734777
0.000681563
0.00062998
3.77263e-05
0.00027038
0.000569897
0.000784877
0.000928013
0.00102217
0.00108294
0.00112168
0.00114768
0.00116876
0.00119118
0.00121928
0.00125543
0.00130033
0.00135346
0.00141364
0.00147934
0.00154899
0.00162111
0.00169436
0.00176764
0.00184001
0.00191073
0.00197922
0.00204502
0.00210779
0.00216728
0.00222333
0.00227586
0.00232482
0.00237026
0.00241224
0.00245089
0.00248635
0.00251882
0.00254852
0.00257566
0.00260051
0.00262333
0.0026444
0.00266398
0.00268235
0.00269976
0.00271649
0.00273277
0.00274882
0.00276485
0.00278104
0.00279755
0.00281452
0.00283205
0.00285021
0.00286907
0.00288863
0.0029089
0.00292984
0.00295141
0.00297357
0.00299647
0.00302012
0.00304444
0.00306934
0.00309472
0.00312044
0.00314639
0.00317241
0.00319837
0.00322412
0.0032495
0.00327436
0.00329855
0.00332189
0.00334421
0.00336534
0.00338509
0.00340326
0.00341964
0.00343401
0.00344614
0.00345577
0.00346266
0.00346653
0.00346711
0.00346412
0.00345729
0.00344639
0.0034312
0.00341157
0.00338738
0.00335864
0.00332544
0.00328796
0.00324653
0.00320157
0.00315362
0.00310332
0.00305137
0.00299853
0.00294555
0.00289318
0.00284198
0.00279243
0.00274512
0.0027005
0.00265887
0.00262041
0.0025852
0.00255321
0.00252433
0.00249836
0.00247506
0.00245414
0.00243529
0.00241818
0.00240247
0.00238783
0.00237397
0.00236057
0.00234738
0.00233423
0.00232111
0.00230776
0.00229394
0.00227948
0.00226426
0.0022482
0.00223125
0.00221338
0.00219462
0.00217498
0.00215453
0.00213333
0.00211149
0.00208913
0.00206635
0.00204332
0.00202018
0.00199708
0.0019742
0.00195169
0.00192972
0.00190844
0.00188799
0.00186848
0.00184999
0.00183255
0.00181614
0.00180068
0.00178599
0.0017718
0.0017578
0.00174356
0.00172861
0.0017124
0.00169441
0.00167405
0.00165077
0.00162458
0.00159566
0.001564
0.00152969
0.00149298
0.00145419
0.00141376
0.00137214
0.00132981
0.00128717
0.00124451
0.00120189
0.00115915
0.00111598
0.001072
0.00102678
0.000979949
0.000931151
0.000880173
0.000827744
0.000774522
0.000721402
0.000669743
4.0137e-05
0.000280739
0.000588702
0.000817948
0.000976881
0.00108725
0.00116452
0.0012198
0.00126186
0.00129792
0.00133368
0.00137319
0.00141878
0.00147125
0.00153024
0.00159471
0.00166327
0.00173447
0.00180698
0.0018796
0.00195136
0.00202147
0.00208931
0.00215439
0.00221635
0.00227491
0.00232988
0.00238116
0.00242868
0.00247245
0.00251252
0.00254898
0.00258199
0.00261172
0.00263838
0.00266222
0.00268348
0.00270246
0.00271945
0.00273474
0.00274864
0.00276144
0.00277343
0.0027849
0.0027961
0.00280728
0.00281865
0.00283041
0.00284273
0.00285574
0.00286956
0.00288427
0.00289992
0.00291654
0.00293411
0.00295262
0.00297201
0.00299228
0.00301356
0.00303588
0.00305918
0.00308339
0.00310842
0.00313416
0.0031605
0.00318733
0.00321454
0.00324201
0.0032696
0.0032972
0.00332467
0.00335188
0.00337867
0.00340489
0.00343035
0.00345488
0.00347825
0.00350024
0.00352057
0.00353898
0.00355514
0.00356873
0.0035794
0.00358678
0.00359052
0.00359024
0.00358562
0.00357637
0.00356225
0.00354313
0.00351895
0.00348978
0.00345583
0.00341743
0.00337506
0.00332929
0.00328081
0.00323039
0.00317882
0.00312692
0.00307525
0.00302456
0.0029755
0.00292858
0.0028842
0.00284264
0.00280406
0.00276851
0.00273595
0.00270625
0.00267922
0.00265459
0.00263209
0.0026114
0.00259217
0.00257409
0.00255682
0.00254004
0.00252348
0.00250684
0.00249016
0.00247321
0.00245572
0.00243751
0.00241843
0.00239835
0.00237722
0.00235499
0.00233168
0.00230729
0.0022819
0.00225557
0.00222841
0.00220055
0.00217214
0.00214334
0.00211433
0.00208532
0.00205652
0.00202813
0.00200038
0.0019735
0.00194768
0.00192312
0.00189998
0.00187836
0.00185833
0.00183986
0.00182281
0.00180698
0.00179204
0.00177754
0.00176295
0.00174766
0.001731
0.00171226
0.00169075
0.00166601
0.00163811
0.00160693
0.00157251
0.00153504
0.00149489
0.00145254
0.00140861
0.00136378
0.00131868
0.00127381
0.0012294
0.00118541
0.00114155
0.00109736
0.00105235
0.00100603
0.000957982
0.000907912
0.000856309
0.000803849
0.000751434
0.000700369
4.11169e-05
0.000283428
0.000600066
0.000842437
0.0010163
0.00114262
0.00123649
0.00130859
0.00136703
0.0014183
0.00146742
0.00151801
0.00157224
0.00163101
0.00169421
0.00176107
0.00183049
0.00190131
0.00197239
0.00204276
0.00211159
0.00217822
0.00224213
0.00230292
0.00236028
0.002414
0.00246392
0.00250997
0.00255211
0.00259036
0.00262482
0.00265559
0.00268283
0.00270675
0.00272758
0.00274558
0.00276103
0.00277423
0.00278551
0.00279517
0.00280355
0.00281095
0.00281769
0.00282405
0.00283032
0.00283674
0.00284354
0.00285093
0.00285908
0.00286812
0.00287819
0.00288935
0.00290167
0.00291518
0.00292988
0.00294574
0.00296271
0.00298079
0.00300013
0.00302076
0.00304263
0.00306569
0.00308987
0.00311507
0.00314123
0.00316824
0.00319604
0.00322452
0.00325362
0.00328323
0.00331327
0.00334364
0.00337422
0.0034049
0.00343552
0.00346591
0.00349587
0.00352517
0.00355352
0.00358062
0.00360612
0.00362962
0.00365071
0.00366891
0.00368378
0.00369483
0.0037016
0.00370365
0.00370063
0.00369222
0.00367825
0.00365864
0.00363348
0.00360297
0.00356751
0.0035276
0.0034839
0.00343716
0.0033882
0.00333788
0.00328688
0.00323608
0.0031862
0.00313785
0.00309153
0.00304759
0.0030063
0.00296778
0.00293208
0.00289912
0.00286877
0.00284083
0.00281503
0.00279107
0.00276863
0.00274737
0.00272696
0.00270707
0.00268736
0.00266755
0.0026475
0.00262712
0.00260613
0.0025843
0.00256146
0.00253745
0.0025122
0.00248563
0.00245775
0.00242855
0.0023981
0.00236646
0.00233375
0.0023001
0.00226567
0.00223065
0.00219526
0.00215974
0.00212433
0.00208931
0.00205497
0.0020216
0.0019895
0.00195896
0.00193023
0.00190353
0.00187902
0.00185676
0.00183672
0.00181873
0.0018025
0.0017876
0.00177344
0.00175933
0.00174448
0.00172804
0.00170916
0.00168703
0.00166135
0.00163192
0.00159863
0.00156156
0.00152101
0.0014775
0.00143179
0.00138475
0.00133733
0.00129033
0.00124424
0.00119917
0.00115487
0.00111082
0.00106638
0.00102094
0.000974008
0.000925232
0.00087485
0.000823574
0.000772311
0.00072234
4.17706e-05
0.00028286
0.000605293
0.000859133
0.00104696
0.00118858
0.0012985
0.00138682
0.00146098
0.00152671
0.0015884
0.00164918
0.00171107
0.00177506
0.00184129
0.00190936
0.00197852
0.0020479
0.00211664
0.00218397
0.00224922
0.00231183
0.00237139
0.00242755
0.00248006
0.00252874
0.00257346
0.00261418
0.00265088
0.00268361
0.00271246
0.00273757
0.00275912
0.00277732
0.00279243
0.00280472
0.00281449
0.00282207
0.00282778
0.00283196
0.00283495
0.00283708
0.00283867
0.00284002
0.00284141
0.00284312
0.00284536
0.00284836
0.00285229
0.0028573
0.0028635
0.002871
0.00287986
0.0028901
0.00290173
0.00291473
0.00292906
0.00294472
0.00296182
0.00298042
0.00300047