/*--------------------------------*- C++ -*----------------------------------*\
  =========                 |
  \\      /  F ield         | OpenFOAM: The Open Source CFD Toolbox
   \\    /   O peration     | Website:  https://openfoam.org
    \\  /    A nd           | Version:  9
     \\/     M anipulation  |
\*---------------------------------------------------------------------------*/
FoamFile
{
    format      ascii;
    class       volScalarField;
    location    "0.13";
    object      p;
}
// * * * * * * * * * * * * * * * * * * * * * * * * * * * * * * * * * * * * * //

dimensions      [0 2 -2 0 0 0 0];

internalField   nonuniform List<scalar> 
12225
(
1.32374
0.992106
0.896448
0.885678
0.880616
0.878926
0.882036
0.887662
0.894486
0.9024
0.911503
0.921769
0.932996
0.944607
0.955517
0.962178
0.957939
0.878148
0.882121
0.904264
0.894137
0.888597
0.884046
0.882508
0.885601
0.891223
0.898043
0.905936
0.91503
0.925351
0.936744
0.948647
0.960027
0.96775
0.968485
0.975759
0.869549
0.919178
0.900901
0.89181
0.888003
0.887118
0.890387
0.896113
0.903021
0.910951
0.920056
0.930443
0.942072
0.954499
0.966921
0.977348
0.987792
1.03385
0.90389
0.925099
0.902071
0.893058
0.890451
0.890483
0.894231
0.900305
0.907484
0.915558
0.924699
0.935119
0.946939
0.959954
0.973812
0.988359
1.00866
1.05956
0.908411
0.917698
0.899524
0.892711
0.891295
0.89231
0.896663
0.903166
0.910665
0.918903
0.928057
0.938434
0.950316
0.963758
0.9789
0.997041
1.02358
1.07154
0.901693
0.908664
0.896303
0.891409
0.890967
0.892884
0.897793
0.904662
0.912419
0.920765
0.929867
0.940092
0.951848
0.965403
0.981271
1.00152
1.03105
1.07388
0.895749
0.901447
0.892959
0.889396
0.889723
0.89237
0.897687
0.90478
0.912665
0.921003
0.929935
0.939853
0.951236
0.964487
0.980336
1.00106
1.03063
1.06693
0.891151
0.895258
0.8893
0.886764
0.88767
0.890823
0.896353
0.903482
0.911311
0.919472
0.928061
0.937461
0.948165
0.960635
0.975669
0.995378
1.02262
1.052
0.886695
0.889391
0.885273
0.883567
0.884856
0.888275
0.893799
0.900744
0.908294
0.916059
0.924085
0.932709
0.942391
0.953582
0.967033
0.984493
1.00782
1.03056
0.881984
0.883671
0.880906
0.879836
0.881312
0.884756
0.890044
0.896567
0.903589
0.910709
0.917914
0.925473
0.933776
0.943214
0.95441
0.968692
0.987183
1.00373
0.876996
0.878017
0.876199
0.875572
0.877055
0.880298
0.885121
0.890982
0.897217
0.903422
0.909529
0.915723
0.922302
0.929566
0.93797
0.948436
0.961632
0.972374
0.872192
0.872811
0.871563
0.871184
0.872531
0.875408
0.879616
0.884664
0.889952
0.895079
0.899928
0.904609
0.909327
0.914287
0.919787
0.926419
0.934602
0.940109
0.86722
0.867545
0.866686
0.86641
0.867493
0.869853
0.873283
0.877342
0.881493
0.885344
0.88874
0.891715
0.894386
0.896862
0.899307
0.902058
0.905281
0.905898
0.861181
0.861295
0.860675
0.860366
0.861011
0.862611
0.864965
0.867684
0.8703
0.872444
0.873928
0.874716
0.874833
0.874297
0.873145
0.87151
0.869397
0.864871
0.853877
0.853855
0.853296
0.852774
0.852776
0.853343
0.854289
0.855282
0.855923
0.855881
0.85495
0.853037
0.850094
0.846062
0.840883
0.834545
0.82699
0.817106
0.845116
0.844997
0.844311
0.843355
0.842475
0.841716
0.840914
0.839787
0.838012
0.835306
0.831471
0.826383
0.81995
0.812065
0.802616
0.791512
0.77868
0.763496
0.834785
0.834569
0.833572
0.831933
0.82991
0.82754
0.824678
0.821095
0.816541
0.810795
0.80369
0.795107
0.784943
0.773088
0.759422
0.743839
0.726286
0.706419
0.823024
0.822678
0.821192
0.818612
0.815183
0.810951
0.805797
0.799547
0.792024
0.783072
0.772574
0.760441
0.746591
0.730937
0.713384
0.693846
0.672296
0.648524
0.810595
0.810067
0.807903
0.804108
0.798999
0.792674
0.785067
0.776073
0.765596
0.753554
0.739887
0.724554
0.707519
0.688748
0.668211
0.645893
0.621844
0.596024
0.802008
0.801355
0.798522
0.793571
0.786979
0.778926
0.769406
0.758387
0.74584
0.731726
0.716005
0.698644
0.67961
0.658872
0.63641
0.612214
0.586323
0.558727
0.797715
0.797009
0.793577
0.787606
0.7798
0.770419
0.759518
0.747143
0.733318
0.718021
0.701203
0.682809
0.662784
0.641078
0.617654
0.592487
0.565583
0.536933
0.796157
0.795515
0.791431
0.784387
0.775433
0.764878
0.752826
0.739418
0.724718
0.708697
0.691277
0.672367
0.651878
0.629735
0.605886
0.5803
0.552974
0.523926
0.796534
0.796255
0.791442
0.783251
0.773244
0.761679
0.748712
0.734585
0.719378
0.703023
0.685399
0.666368
0.645801
0.623594
0.599682
0.574029
0.546627
0.517506
0.798169
0.798773
0.793032
0.783651
0.772747
0.760331
0.746671
0.732119
0.716723
0.700346
0.68281
0.66393
0.643536
0.621504
0.597757
0.572261
0.545012
0.516055
0.801065
0.803238
0.795804
0.78512
0.773511
0.760367
0.746219
0.731516
0.716209
0.700057
0.682827
0.664287
0.644234
0.622527
0.59909
0.573903
0.546969
0.518352
0.805441
0.811085
0.799938
0.787323
0.775055
0.761243
0.746818
0.732232
0.717268
0.701558
0.68481
0.666752
0.647155
0.625875
0.602851
0.57808
0.551584
0.523448
0.804547
0.821289
0.805219
0.789842
0.776674
0.762336
0.747846
0.73369
0.719349
0.704293
0.688189
0.670731
0.651678
0.630901
0.608364
0.584093
0.558132
0.530581
0.771656
0.82004
0.807152
0.79131
0.777273
0.762511
0.748553
0.735303
0.721938
0.707781
0.692483
0.675726
0.657284
0.637063
0.615064
0.591352
0.565996
0.539098
0.754687
0.795551
0.799342
0.790105
0.776343
0.76148
0.748385
0.73664
0.724532
0.711428
0.697009
0.68098
0.663159
0.643501
0.622057
0.598928
0.574216
0.54804
1.18883
0.90713
0.810566
0.791455
0.776457
0.761362
0.749159
0.738452
0.727144
0.714684
0.700788
0.685189
0.667732
0.64841
0.627303
0.604536
0.58024
0.554593
-1.90443
-1.89405
-1.92902
-2.00795
-2.1117
-2.22091
-2.31925
-2.39327
-2.43381
-2.44746
-2.44206
-2.42692
-2.41039
-2.39966
-2.39924
-2.41053
-2.43297
-2.46562
-2.50809
-2.56076
-2.62478
-2.70182
-2.79454
-2.90557
-3.0366
-3.18854
-3.36165
-3.55547
-3.76895
-4.00048
-4.24808
-4.50952
-4.7824
-5.06433
-5.35293
-5.64592
-5.94113
-6.23652
-6.53016
-6.82019
-7.10487
-7.38248
-7.65134
-7.9098
-8.15622
-8.38896
-8.60638
-8.80687
-8.98887
-9.15084
-9.29133
-9.409
-9.50268
-9.57145
-9.61478
-9.63248
-9.62393
-9.58745
-9.52137
-9.42403
-9.29743
-9.14316
-8.96266
-8.7575
-8.52942
-8.28037
-8.01251
-7.72817
-7.42984
-7.12013
-6.80171
-6.47729
-6.14955
-5.82114
-5.49458
-5.17229
-4.85649
-4.54924
-4.25237
-3.96748
-3.69594
-3.43889
-3.19723
-2.97162
-2.76254
-2.57025
-2.39482
-2.2362
-2.09414
-1.9683
-1.85822
-1.76333
-1.683
-1.61654
-1.56325
-1.52237
-1.49317
-1.47486
-1.46668
-1.46784
-1.47756
-1.4951
-1.51979
-1.55092
-1.58685
-1.62672
-1.66995
-1.7158
-1.76345
-1.8121
-1.8609
-1.90905
-1.95574
-2.00021
-2.04176
-2.07974
-2.1135
-2.14221
-2.16519
-2.1818
-2.19171
-2.1946
-2.19019
-2.17825
-2.15862
-2.13122
-2.09603
-2.05311
-2.00257
-1.94461
-1.87945
-1.8074
-1.72881
-1.64409
-1.55369
-1.45811
-1.3579
-1.25363
-1.14595
-1.03551
-0.923011
-0.809175
-0.694752
-0.580645
-0.467595
-0.356106
-0.247233
-0.142497
-0.037069
0.0529803
0.135924
0.222728
0.289646
0.345755
0.400092
0.450357
0.486291
0.501081
0.512865
0.509665
0.49937
0.493737
0.455863
0.420122
0.376196
0.327247
0.270176
0.207235
0.168623
0.122875
0.078561
0.039914
0.00992844
-0.0128267
-0.0250671
-0.0263382
-0.0163647
0.00427766
0.0372678
0.075864
-2.09909
-2.08953
-2.14578
-2.24191
-2.34511
-2.44055
-2.5201
-2.57759
-2.60767
-2.59691
-2.54976
-2.48089
-2.40927
-2.35134
-2.31679
-2.3074
-2.31919
-2.34668
-2.38612
-2.43614
-2.49812
-2.57487
-2.66908
-2.78358
-2.92034
-3.08021
-3.26299
-3.46765
-3.69246
-3.93523
-4.19348
-4.46463
-4.74612
-5.0355
-5.33048
-5.62894
-5.92889
-6.2285
-6.52605
-6.81988
-7.10838
-7.38997
-7.66306
-7.92607
-8.17739
-8.41539
-8.63844
-8.8449
-9.03314
-9.20154
-9.34853
-9.47261
-9.57229
-9.64623
-9.69313
-9.71174
-9.70125
-9.66186
-9.59406
-9.4999
-9.37846
-9.22994
-9.05518
-8.85546
-8.63235
-8.38769
-8.12353
-7.84216
-7.54599
-7.2376
-6.91963
-6.59478
-6.26573
-5.93516
-5.60561
-5.27956
-4.9593
-4.64696
-4.34445
-4.05347
-3.77549
-3.51176
-3.26327
-3.03079
-2.8149
-2.61593
-2.43407
-2.26931
-2.12149
-1.99032
-1.87536
-1.77609
-1.69188
-1.62205
-1.56585
-1.52254
-1.49132
-1.47139
-1.46192
-1.46209
-1.47107
-1.48799
-1.51196
-1.54182
-1.57748
-1.61788
-1.66198
-1.70888
-1.75772
-1.80763
-1.85777
-1.9073
-1.95537
-2.00121
-2.04403
-2.08308
-2.11765
-2.14713
-2.17098
-2.18878
-2.2
-2.20425
-2.20122
-2.19067
-2.17244
-2.14644
-2.11266
-2.07115
-2.02201
-1.96544
-1.90166
-1.83098
-1.75375
-1.67036
-1.58128
-1.487
-1.38807
-1.28506
-1.17861
-1.06937
-0.958037
-0.845343
-0.732037
-0.618964
-0.507178
-0.39782
-0.291604
-0.188443
-0.0898473
0.0067281
0.0965825
0.173752
0.24875
0.31016
0.364309
0.410101
0.440679
0.465802
0.475536
0.481532
0.475715
0.448463
0.426889
0.390165
0.35034
0.302827
0.25793
0.21364
0.156313
0.106304
0.061767
0.0240734
-0.00537147
-0.0238369
-0.0324785
-0.0302381
-0.0169231
0.00632687
0.0403889
0.0769015
-2.2424
-2.2669
-2.32629
-2.40378
-2.48057
-2.54611
-2.59433
-2.62087
-2.62289
-2.59853
-2.55001
-2.48557
-2.41743
-2.35809
-2.31606
-2.29424
-2.29177
-2.30697
-2.33933
-2.38979
-2.46032
-2.55275
-2.66787
-2.80551
-2.96498
-3.14522
-3.34477
-3.56193
-3.79483
-4.04152
-4.30005
-4.56854
-4.84516
-5.12817
-5.41592
-5.70681
-5.99931
-6.2919
-6.5831
-6.8714
-7.15529
-7.43325
-7.70373
-7.96511
-8.21579
-8.45411
-8.67841
-8.88701
-9.07825
-9.25049
-9.40213
-9.53165
-9.63761
-9.71867
-9.77353
-9.80091
-9.79975
-9.76966
-9.71084
-9.62392
-9.50904
-9.36664
-9.19754
-9.00291
-8.7842
-8.54317
-8.28181
-8.00232
-7.70709
-7.39865
-7.07965
-6.75276
-6.42072
-6.08619
-5.7518
-5.42006
-5.09335
-4.77386
-4.46362
-4.16443
-3.87787
-3.60528
-3.34778
-3.10626
-2.88138
-2.67362
-2.48323
-2.31031
-2.15478
-2.01641
-1.89482
-1.78953
-1.69993
-1.62536
-1.56508
-1.51833
-1.48429
-1.46212
-1.45098
-1.45
-1.45829
-1.47497
-1.49899
-1.52949
-1.56573
-1.60688
-1.65195
-1.70002
-1.75017
-1.80151
-1.85315
-1.90425
-1.95396
-2.00148
-2.04602
-2.08682
-2.12317
-2.15445
-2.18012
-2.19971
-2.21273
-2.21878
-2.21754
-2.20877
-2.19231
-2.16806
-2.13599
-2.09617
-2.04869
-1.99373
-1.93155
-1.86242
-1.7867
-1.7048
-1.61716
-1.52429
-1.42673
-1.32506
-1.21991
-1.11192
-1.00181
-0.890296
-0.778139
-0.666131
-0.555178
-0.446329
-0.340385
-0.237521
-0.138533
-0.0411725
0.046028
0.126917
0.201171
0.261748
0.315954
0.364159
0.397998
0.420959
0.435168
0.439353
0.436024
0.41586
0.391867
0.360034
0.320925
0.278221
0.232967
0.189504
0.138565
0.0920661
0.0504922
0.015449
-0.011706
-0.0294804
-0.0372705
-0.0345043
-0.0212148
0.00133206
0.0330835
0.0648909
-2.23763
-2.29304
-2.35207
-2.41465
-2.47491
-2.52466
-2.55929
-2.57548
-2.57164
-2.5485
-2.50983
-2.46231
-2.41413
-2.37299
-2.3444
-2.33155
-2.33628
-2.36008
-2.40437
-2.47025
-2.55821
-2.66799
-2.79873
-2.94921
-3.11808
-3.30398
-3.50559
-3.72156
-3.9506
-4.19141
-4.4427
-4.70317
-4.97153
-5.24646
-5.52665
-5.81076
-6.09744
-6.38529
-6.67289
-6.95877
-7.24142
-7.51926
-7.79068
-8.05402
-8.30755
-8.54952
-8.77814
-8.9916
-9.18811
-9.36587
-9.52314
-9.65826
-9.76965
-9.85589
-9.9157
-9.94794
-9.95176
-9.92667
-9.87251
-9.78929
-9.67723
-9.53681
-9.36888
-9.17456
-8.95532
-8.71289
-8.44926
-8.16668
-7.86756
-7.55448
-7.23014
-6.89727
-6.55868
-6.21711
-5.87527
-5.53574
-5.20098
-4.87327
-4.5547
-4.24714
-3.95225
-3.67143
-3.40585
-3.15648
-2.92401
-2.70896
-2.51165
-2.3322
-2.17056
-2.02654
-1.89977
-1.7898
-1.69605
-1.61784
-1.55445
-1.50512
-1.46902
-1.44531
-1.43313
-1.43157
-1.43971
-1.45663
-1.48137
-1.513
-1.55062
-1.59331
-1.64009
-1.69
-1.7421
-1.79546
-1.84917
-1.90235
-1.95415
-2.00374
-2.05033
-2.09317
-2.13158
-2.16491
-2.19262
-2.21418
-2.22912
-2.23704
-2.23763
-2.23063
-2.21588
-2.19327
-2.1628
-2.1245
-2.07848
-2.02493
-1.96409
-1.89624
-1.82174
-1.741
-1.65447
-1.56264
-1.46608
-1.36535
-1.26108
-1.15394
-1.04461
-0.933826
-0.822352
-0.710972
-0.600515
-0.491892
-0.3859
-0.283023
-0.183663
-0.0877421
-0.000611523
0.0812662
0.154735
0.21665
0.271723
0.320155
0.356001
0.379808
0.395593
0.40068
0.39849
0.38331
0.359842
0.330708
0.293757
0.253349
0.209781
0.167406
0.121888
0.0784907
0.0392959
0.00599319
-0.0199917
-0.037164
-0.0446572
-0.0421496
-0.0297376
-0.00866349
0.0202214
0.0492249
-2.04651
-2.12502
-2.19917
-2.26722
-2.32649
-2.37382
-2.40712
-2.42549
-2.42937
-2.42091
-2.40381
-2.38302
-2.364
-2.35174
-2.35026
-2.36266
-2.39129
-2.4379
-2.5036
-2.58883
-2.69342
-2.81669
-2.95772
-3.11546
-3.28886
-3.47691
-3.67863
-3.89306
-4.11928
-4.35634
-4.60329
-4.85913
-5.12284
-5.39337
-5.66959
-5.95034
-6.23438
-6.52042
-6.80709
-7.09293
-7.37644
-7.65601
-7.92998
-8.1966
-8.45407
-8.70052
-8.93405
-9.15274
-9.35466
-9.53788
-9.70053
-9.84082
-9.95704
-10.0477
-10.1112
-10.1466
-10.1529
-10.1294
-10.0759
-9.99223
-9.87864
-9.73563
-9.56407
-9.36512
-9.14028
-8.89137
-8.62045
-8.32984
-8.02207
-7.69982
-7.36588
-7.02315
-6.6745
-6.32281
-5.97089
-5.62141
-5.27693
-4.9398
-4.61217
-4.29597
-3.9929
-3.70437
-3.4316
-3.17554
-2.93689
-2.71618
-2.51369
-2.32956
-2.16372
-2.01596
-1.88593
-1.77312
-1.67697
-1.5968
-1.53187
-1.48141
-1.4446
-1.42059
-1.40848
-1.40738
-1.41634
-1.4344
-1.46061
-1.49399
-1.53358
-1.57838
-1.62741
-1.67968
-1.7342
-1.79002
-1.84621
-1.90185
-1.95608
-2.00806
-2.05698
-2.1021
-2.14271
-2.17818
-2.20794
-2.23146
-2.24826
-2.25795
-2.26022
-2.25482
-2.24157
-2.22039
-2.19125
-2.1542
-2.10935
-2.05689
-1.99706
-1.93016
-1.85654
-1.7766
-1.69082
-1.59968
-1.50373
-1.40357
-1.29982
-1.19314
-1.08423
-0.973803
-0.862631
-0.751494
-0.641203
-0.532599
-0.42647
-0.323397
-0.22397
-0.128916
-0.0410107
0.0408074
0.114417
0.178096
0.234086
0.282305
0.319289
0.345002
0.361749
0.368511
0.366982
0.354248
0.33297
0.305389
0.270842
0.232181
0.190813
0.149546
0.106663
0.0654326
0.0279597
-0.00405643
-0.0291258
-0.0458371
-0.053351
-0.0513741
-0.0400167
-0.0204428
0.00595514
0.033768
-1.72083
-1.82146
-1.92294
-2.00993
-2.07944
-2.13375
-2.17481
-2.2042
-2.22422
-2.23803
-2.2492
-2.26134
-2.27783
-2.30165
-2.33536
-2.38107
-2.44047
-2.51477
-2.6047
-2.71052
-2.83211
-2.96902
-3.12067
-3.28638
-3.46545
-3.65722
-3.86104
-4.07627
-4.30228
-4.53841
-4.78399
-5.03826
-5.30043
-5.56964
-5.84492
-6.12525
-6.40948
-6.69638
-6.98463
-7.2728
-7.55935
-7.84263
-8.12093
-8.39241
-8.65517
-8.90724
-9.14659
-9.37115
-9.57885
-9.76764
-9.93549
-10.0805
-10.2008
-10.2947
-10.3607
-10.3975
-10.4041
-10.3798
-10.3242
-10.2372
-10.1189
-9.96986
-9.79107
-9.58373
-9.34944
-9.09009
-8.80789
-8.50528
-8.18493
-7.84969
-7.5025
-7.1464
-6.78443
-6.41961
-6.05486
-5.69301
-5.33669
-4.98834
-4.6502
-4.32423
-4.01215
-3.71543
-3.43526
-3.17257
-2.92806
-2.70222
-2.4953
-2.30739
-2.1384
-1.98805
-1.85597
-1.74163
-1.6444
-1.56358
-1.49841
-1.44809
-1.41179
-1.38862
-1.37768
-1.37805
-1.38875
-1.40882
-1.43727
-1.47308
-1.51524
-1.56274
-1.61455
-1.66965
-1.72703
-1.78571
-1.84473
-1.90316
-1.96011
-2.01472
-2.06617
-2.11372
-2.15664
-2.19431
-2.22613
-2.25158
-2.27019
-2.28158
-2.28541
-2.28146
-2.26955
-2.2496
-2.22159
-2.18557
-2.14167
-2.09006
-2.031
-1.96478
-1.89177
-1.81238
-1.72707
-1.63634
-1.54076
-1.4409
-1.3374
-1.23092
-1.12215
-1.01183
-0.900707
-0.789562
-0.679197
-0.570435
-0.464053
-0.360722
-0.26113
-0.166209
-0.077711
0.0043348
0.078454
0.143521
0.200426
0.248911
0.286942
0.314307
0.332249
0.340452
0.339757
0.328924
0.309624
0.283544
0.250981
0.214085
0.174442
0.134078
0.0929275
0.0533111
0.017191
-0.013761
-0.0380731
-0.0544732
-0.0621711
-0.060829
-0.0505817
-0.0324451
-0.00817231
0.0191989
-1.36258
-1.47769
-1.60616
-1.71424
-1.79678
-1.86218
-1.91621
-1.96223
-2.00345
-2.04336
-2.08514
-2.13139
-2.18403
-2.2445
-2.31395
-2.39342
-2.4838
-2.5858
-2.6999
-2.82636
-2.9652
-3.11629
-3.27941
-3.45426
-3.64052
-3.83787
-4.04598
-4.26452
-4.49311
-4.73132
-4.97868
-5.23465
-5.49858
-5.76974
-6.0473
-6.33032
-6.61773
-6.90836
-7.20089
-7.4939
-7.78583
-8.07499
-8.35958
-8.63771
-8.90735
-9.16642
-9.41276
-9.64416
-9.8584
-10.0533
-10.2266
-10.3763
-10.5004
-10.597
-10.6646
-10.7017
-10.7072
-10.6803
-10.6206
-10.5279
-10.4024
-10.2446
-10.0557
-9.83676
-9.58966
-9.3164
-9.01933
-8.70109
-8.36453
-8.01267
-7.64868
-7.27578
-6.8972
-6.51613
-6.13568
-5.75878
-5.38822
-5.02655
-4.67605
-4.33876
-4.01644
-3.71056
-3.4223
-3.15258
-2.90205
-2.67116
-2.46011
-2.26891
-2.09741
-1.94528
-1.81206
-1.69717
-1.59992
-1.51956
-1.45528
-1.40622
-1.37152
-1.35025
-1.34149
-1.34428
-1.35762
-1.38052
-1.41194
-1.45084
-1.49619
-1.54693
-1.602
-1.66038
-1.72102
-1.78291
-1.84508
-1.90657
-1.96646
-2.02389
-2.07804
-2.12813
-2.17345
-2.21336
-2.24726
-2.27463
-2.29502
-2.30803
-2.31335
-2.31075
-2.30006
-2.2812
-2.25417
-2.21902
-2.17588
-2.12493
-2.06644
-2.00072
-1.92812
-1.84906
-1.76401
-1.67349
-1.57805
-1.47827
-1.37481
-1.26831
-1.15948
-1.04906
-0.93778
-0.826433
-0.715811
-0.606729
-0.499972
-0.396267
-0.296372
-0.201255
-0.112186
-0.0296778
0.0451247
0.111373
0.169234
0.218329
0.257427
0.286251
0.30546
0.315031
0.315437
0.306292
0.288764
0.264225
0.233414
0.1981
0.159889
0.120505
0.0807027
0.0423838
0.00737844
-0.0226944
-0.0464147
-0.0626187
-0.0705376
-0.06984
-0.0606607
-0.0438277
-0.0213399
0.00595112
-1.04134
-1.14869
-1.29895
-1.42727
-1.52368
-1.60332
-1.67396
-1.73975
-1.80419
-1.87057
-1.94157
-2.01898
-2.10378
-2.19643
-2.29719
-2.40633
-2.52416
-2.65102
-2.78722
-2.933
-3.08854
-3.25395
-3.42928
-3.61456
-3.80977
-4.01487
-4.22978
-4.45438
-4.68849
-4.93187
-5.18419
-5.44506
-5.71394
-5.99023
-6.27318
-6.56192
-6.85543
-7.15259
-7.45209
-7.75249
-8.05222
-8.34954
-8.64259
-8.92937
-9.20775
-9.47553
-9.7304
-9.97
-10.1919
-10.3939
-10.5734
-10.7283
-10.8564
-10.9557
-11.0245
-11.0612
-11.0647
-11.034
-10.9686
-10.8683
-10.7334
-10.5644
-10.3625
-10.129
-9.86594
-9.57538
-9.25993
-8.92243
-8.56597
-8.19382
-7.80937
-7.41609
-7.01745
-6.61685
-6.2176
-5.8228
-5.4354
-5.05805
-4.69315
-4.34279
-4.00877
-3.69257
-3.39535
-3.11801
-2.86115
-2.62513
-2.41009
-2.21595
-2.04248
-1.88924
-1.7557
-1.64116
-1.54488
-1.466
-1.40364
-1.35689
-1.32482
-1.30646
-1.30083
-1.30692
-1.32373
-1.35021
-1.3853
-1.42792
-1.477
-1.53148
-1.59027
-1.65231
-1.71654
-1.78194
-1.8475
-1.91226
-1.97528
-2.03569
-2.09264
-2.14537
-2.19315
-2.23533
-2.27132
-2.30061
-2.32275
-2.33734
-2.34409
-2.34275
-2.33319
-2.31532
-2.28915
-2.25474
-2.21222
-2.1618
-2.10373
-2.03833
-1.96597
-1.88707
-1.80211
-1.71161
-1.61611
-1.51624
-1.41261
-1.30591
-1.19682
-1.0861
-0.974478
-0.862746
-0.751697
-0.642141
-0.534876
-0.430667
-0.330315
-0.234769
-0.145068
-0.0619356
0.0136618
0.0809919
0.139848
0.189787
0.229994
0.260189
0.280703
0.291636
0.293311
0.285766
0.269919
0.246935
0.217753
0.183922
0.147027
0.108668
0.070013
0.0327872
-0.00127925
-0.0306206
-0.0538695
-0.0699283
-0.0780627
-0.0779482
-0.0697204
-0.0540069
-0.032963
-0.00558619
-0.74384
-0.887081
-1.02991
-1.16417
-1.2789
-1.379
-1.47095
-1.55897
-1.64675
-1.7376
-1.83397
-1.93732
-2.04821
-2.16669
-2.29259
-2.42577
-2.5662
-2.71401
-2.86936
-3.0325
-3.20369
-3.38317
-3.57118
-3.76793
-3.97361
-4.18834
-4.41223
-4.6453
-4.88753
-5.1388
-5.3989
-5.66754
-5.94429
-6.22862
-6.51986
-6.81719
-7.11965
-7.42612
-7.73531
-8.04577
-8.35588
-8.66387
-8.96778
-9.26551
-9.55483
-9.83339
-10.0987
-10.3483
-10.5796
-10.7899
-10.9768
-11.1378
-11.2706
-11.373
-11.4431
-11.4791
-11.4799
-11.4444
-11.3719
-11.2624
-11.116
-10.9335
-10.7159
-10.4649
-10.1826
-9.8713
-9.53386
-9.17336
-8.79318
-8.39687
-7.98814
-7.57072
-7.14837
-6.72476
-6.30341
-5.88767
-5.48064
-5.08512
-4.70361
-4.3383
-3.99101
-3.66323
-3.35611
-3.07048
-2.8069
-2.56563
-2.34671
-2.14995
-1.97499
-1.82131
-1.68821
-1.57491
-1.48052
-1.40411
-1.34468
-1.30125
-1.27278
-1.25826
-1.25666
-1.26691
-1.28796
-1.31872
-1.35809
-1.40499
-1.4583
-1.51695
-1.57982
-1.64583
-1.71393
-1.78306
-1.8522
-1.92038
-1.98665
-2.05013
-2.10996
-2.16538
-2.21566
-2.26013
-2.29823
-2.32942
-2.35328
-2.36942
-2.37754
-2.37742
-2.36892
-2.35196
-2.32656
-2.2928
-2.2508
-2.20079
-2.14302
-2.07781
-2.00556
-1.92668
-1.84166
-1.75102
-1.65532
-1.55516
-1.4512
-1.34411
-1.23459
-1.12337
-1.01123
-0.898927
-0.787277
-0.677088
-0.569167
-0.464306
-0.36333
-0.267157
-0.176722
-0.0928249
-0.0163343
0.0520598
0.11196
0.162892
0.204252
0.235785
0.25764
0.269957
0.273009
0.267045
0.252847
0.231439
0.203837
0.171459
0.135839
0.0985284
0.060912
0.0246468
-0.00860306
-0.0373138
-0.060162
-0.0760969
-0.0844143
-0.0847942
-0.0773732
-0.0625911
-0.0426835
-0.0151958
-0.532624
-0.685612
-0.841914
-0.984227
-1.10861
-1.22176
-1.32913
-1.43429
-1.54049
-1.65059
-1.76662
-1.88974
-2.02033
-2.15829
-2.3033
-2.45506
-2.61339
-2.77827
-2.94981
-3.12821
-3.31375
-3.50673
-3.70747
-3.91629
-4.13347
-4.35924
-4.59382
-4.83733
-5.08983
-5.35131
-5.62166
-5.90063
-6.1879
-6.48299
-6.78527
-7.09399
-7.4082
-7.72679
-8.04848
-8.3718
-8.69507
-9.01645
-9.33391
-9.64523
-9.94804
-10.2398
-10.5179
-10.7797
-11.0222
-11.2428
-11.4387
-11.6072
-11.7456
-11.8518
-11.9235
-11.9588
-11.9565
-11.9153
-11.8346
-11.7143
-11.5545
-11.356
-11.1201
-10.8486
-10.5437
-10.2081
-9.84492
-9.45751
-9.04959
-8.62507
-8.188
-7.74247
-7.29255
-6.84223
-6.39531
-5.9554
-5.52578
-5.10945
-4.70903
-4.32678
-3.96457
-3.62389
-3.30587
-3.01127
-2.74057
-2.49391
-2.27121
-2.07215
-1.89622
-1.74273
-1.61086
-1.49966
-1.40811
-1.33513
-1.27961
-1.24046
-1.21655
-1.20678
-1.21003
-1.22521
-1.25121
-1.28687
-1.3311
-1.38275
-1.44071
-1.50386
-1.57111
-1.64134
-1.71349
-1.7865
-1.85934
-1.93102
-2.00061
-2.06719
-2.12994
-2.18806
-2.24084
-2.28761
-2.32779
-2.36087
-2.38642
-2.40408
-2.41354
-2.41459
-2.4071
-2.39101
-2.36633
-2.33314
-2.2916
-2.24192
-2.18436
-2.11927
-2.04703
-1.96806
-1.88286
-1.79195
-1.6959
-1.59533
-1.49088
-1.38323
-1.2731
-1.16122
-1.04836
-0.935316
-0.822886
-0.711892
-0.60315
-0.497472
-0.395696
-0.298715
-0.207413
-0.12261
-0.0451225
0.0243733
0.0853809
0.137414
0.179978
0.212846
0.236071
0.249806
0.254313
0.249944
0.237401
0.21761
0.191594
0.160677
0.126339
0.0901076
0.0534823
0.0180996
-0.0144119
-0.0425572
-0.0650459
-0.0808617
-0.0893218
-0.0901066
-0.0833511
-0.0693372
-0.0503165
-0.0227891
-0.431584
-0.582578
-0.737775
-0.880803
-1.00932
-1.12966
-1.24666
-1.36333
-1.48234
-1.60602
-1.73601
-1.87319
-2.01787
-2.16991
-2.32898
-2.49477
-2.66703
-2.84569
-3.0308
-3.22251
-3.4211
-3.62687
-3.84017
-4.06132
-4.29067
-4.52851
-4.77509
-5.03062
-5.29521
-5.56891
-5.85166
-6.1433
-6.44352
-6.75191
-7.06789
-7.39072
-7.71948
-8.05306
-8.39015
-8.72926
-9.06865
-9.4064
-9.74037
-10.0682
-10.3874
-10.6952
-10.9888
-11.2652
-11.5215
-11.7545
-11.9612
-12.1388
-12.2843
-12.3952
-12.4691
-12.504
-12.4983
-12.4508
-12.3609
-12.2282
-12.053
-11.8362
-11.5793
-11.2842
-10.9533
-10.5898
-10.1969
-9.77844
-9.33856
-8.88156
-8.41187
-7.934
-7.45243
-6.97148
-6.49532
-6.02781
-5.5725
-5.13258
-4.71081
-4.30954
-3.93068
-3.57574
-3.24578
-2.94152
-2.66329
-2.41112
-2.18477
-1.98375
-1.80737
-1.65476
-1.5249
-1.41668
-1.3289
-1.26032
-1.20968
-1.17575
-1.1573
-1.15312
-1.16203
-1.18285
-1.21441
-1.25555
-1.30509
-1.36189
-1.42483
-1.49276
-1.56458
-1.63919
-1.7155
-1.79245
-1.86903
-1.94423
-2.01713
-2.08681
-2.15244
-2.21324
-2.26848
-2.31751
-2.35974
-2.39467
-2.42188
-2.44101
-2.45178
-2.45397
-2.44746
-2.4322
-2.40821
-2.37557
-2.33445
-2.28506
-2.22768
-2.16265
-2.09035
-2.01123
-1.92577
-1.83451
-1.73802
-1.63692
-1.53185
-1.42351
-1.31261
-1.1999
-1.08616
-0.972194
-0.858804
-0.746823
-0.637081
-0.530407
-0.427645
-0.329672
-0.237346
-0.151488
-0.0728826
-0.00220712
0.0599912
0.113222
0.157051
0.191273
0.2159
0.231087
0.237107
0.234361
0.223501
0.205381
0.180993
0.151582
0.118568
0.0834623
0.0478216
0.013284
-0.0185359
-0.0461577
-0.0683125
-0.0840069
-0.0925726
-0.0936852
-0.0874753
-0.074103
-0.0557839
-0.0283486
-0.405173
-0.548539
-0.696669
-0.836698
-0.965807
-1.0894
-1.21173
-1.33538
-1.46257
-1.59516
-1.73448
-1.88124
-2.03568
-2.19771
-2.36705
-2.54343
-2.7266
-2.91648
-3.11307
-3.31652
-3.52704
-3.74492
-3.97049
-4.2041
-4.44608
-4.69676
-4.95641
-5.22526
-5.50348
-5.79114
-6.08824
-6.39464
-6.71009
-7.03421
-7.36644
-7.70606
-8.05215
-8.40361
-8.7591
-9.11707
-9.47571
-9.833
-10.1867
-10.5342
-10.8729
-11.1998
-11.5119
-11.806
-12.0786
-12.3266
-12.5464
-12.735
-12.8892
-13.0061
-13.0831
-13.1179
-13.1089
-13.0547
-12.9545
-12.808
-12.6156
-12.3783
-12.0975
-11.7756
-11.4154
-11.02
-10.5934
-10.1397
-9.66344
-9.16947
-8.66269
-8.14807
-7.63053
-7.11483
-6.60552
-6.10681
-5.62252
-5.15606
-4.71037
-4.2879
-3.8906
-3.51997
-3.17703
-2.86238
-2.57622
-2.31844
-2.08858
-1.88597
-1.7097
-1.55866
-1.43165
-1.3273
-1.24423
-1.18099
-1.13618
-1.10839
-1.09625
-1.09847
-1.11375
-1.14085
-1.17854
-1.2256
-1.28084
-1.34312
-1.41126
-1.48415
-1.56066
-1.6397
-1.72019
-1.80108
-1.88135
-1.96002
-2.03615
-2.10885
-2.17728
-2.24066
-2.29828
-2.34949
-2.39371
-2.43044
-2.45926
-2.47982
-2.49186
-2.49516
-2.48962
-2.47517
-2.45186
-2.41976
-2.37905
-2.32995
-2.27274
-2.20775
-2.13539
-2.05609
-1.97034
-1.87869
-1.78169
-1.67998
-1.57421
-1.46507
-1.35329
-1.23962
-1.12485
-1.00979
-0.895262
-0.782114
-0.671187
-0.563325
-0.459383
-0.360225
-0.266699
-0.17962
-0.0997571
-0.0277903
0.0357051
0.0902375
0.135409
0.171025
0.197093
0.213769
0.221346
0.220254
0.211115
0.194724
0.172027
0.144192
0.112573
0.078658
0.0440262
0.0103258
-0.0208265
-0.0479521
-0.0697908
-0.0853618
-0.094006
-0.0953903
-0.0896343
-0.0768178
-0.059078
-0.0319024
-0.431455
-0.56447
-0.702156
-0.835808
-0.962264
-1.08581
-1.21007
-1.33725
-1.46914
-1.60725
-1.75262
-1.90584
-2.0671
-2.23636
-2.41342
-2.59805
-2.79007
-2.98939
-3.196
-3.41002
-3.63164
-3.86113
-4.09879
-4.34495
-4.59994
-4.86409
-5.1377
-5.421
-5.71419
-6.01737
-6.33056
-6.65367
-6.98648
-7.32862
-7.67957
-8.0386
-8.40481
-8.77706
-9.15398
-9.53395
-9.91508
-10.2952
-10.672
-11.0426
-11.4042
-11.7536
-12.0875
-12.4023
-12.6943
-12.9599
-13.1955
-13.3973
-13.562
-13.6865
-13.7676
-13.8029
-13.7907
-13.7294
-13.6182
-13.4567
-13.2453
-12.9852
-12.678
-12.3263
-11.9331
-11.5021
-11.0377
-10.5444
-10.0274
-9.49189
-8.94342
-8.38747
-7.8295
-7.27477
-6.72824
-6.19453
-5.6778
-5.18172
-4.7094
-4.26342
-3.84579
-3.45797
-3.10093
-2.77515
-2.48066
-2.21715
-1.98396
-1.78015
-1.60455
-1.45583
-1.33248
-1.23291
-1.15548
-1.09853
-1.06046
-1.03967
-1.03467
-1.04401
-1.06631
-1.10025
-1.14452
-1.19789
-1.25913
-1.32707
-1.40057
-1.47848
-1.5597
-1.64315
-1.72775
-1.81248
-1.89633
-1.97833
-2.05755
-2.13312
-2.2042
-2.27004
-2.32991
-2.38319
-2.4293
-2.46773
-2.49809
-2.52002
-2.53328
-2.53766
-2.53306
-2.51942
-2.49678
-2.46524
-2.42495
-2.37616
-2.31914
-2.25422
-2.18182
-2.10236
-2.01634
-1.92429
-1.82679
-1.72445
-1.61794
-1.50794
-1.39519
-1.28046
-1.16454
-1.04825
-0.932434
-0.817949
-0.705656
-0.596415
-0.491093
-0.390552
-0.295637
-0.207157
-0.125876
-0.0524785
0.012444
0.068398
0.115006
0.152083
0.179643
0.197851
0.207025
0.207617
0.200236
0.185631
0.164698
0.138525
0.108393
0.0757492
0.0421752
0.00932771
-0.0211642
-0.047811
-0.0693492
-0.0848006
-0.0935094
-0.0951338
-0.0897744
-0.0774683
-0.0602441
-0.033516
-0.489925
-0.610967
-0.73607
-0.86083
-0.982186
-1.1033
-1.22716
-1.35554
-1.48988
-1.63135
-1.78075
-1.93854
-2.10489
-2.27979
-2.4631
-2.65465
-2.85432
-3.06203
-3.27779
-3.50171
-3.73396
-3.97479
-4.22448
-4.48336
-4.75174
-5.02996
-5.31832
-5.61708
-5.92644
-6.24655
-6.57744
-6.91906
-7.27121
-7.63354
-8.00555
-8.38653
-8.77555
-9.17146
-9.57282
-9.97795
-10.3848
-10.7912
-11.1945
-11.5917
-11.9798
-12.3551
-12.7142
-13.053
-13.3676
-13.6538
-13.9077
-14.1251
-14.3025
-14.436
-14.5226
-14.5592
-14.5442
-14.4757
-14.3528
-14.1752
-13.9433
-13.6583
-13.3222
-12.9378
-12.5085
-12.0384
-11.5323
-10.9953
-10.4331
-9.85162
-9.2569
-8.65507
-8.05218
-7.45404
-6.86613
-6.29352
-5.74076
-5.21181
-4.71002
-4.2381
-3.79811
-3.39152
-3.01919
-2.68146
-2.37819
-2.10882
-1.87243
-1.6678
-1.49346
-1.34777
-1.22892
-1.13502
-1.06414
-1.0144
-0.98394
-0.970981
-0.973847
-0.990971
-1.02086
-1.06209
-1.11331
-1.17325
-1.24067
-1.3144
-1.39327
-1.47619
-1.56204
-1.64977
-1.73833
-1.82672
-1.91394
-1.99906
-2.08116
-2.15939
-2.23293
-2.30102
-2.36297
-2.41816
-2.46601
-2.50604
-2.53783
-2.56106
-2.57548
-2.5809
-2.57721
-2.56437
-2.54241
-2.51143
-2.4716
-2.42315
-2.36636
-2.30157
-2.22918
-2.14961
-2.06337
-1.97097
-1.873
-1.77006
-1.66282
-1.55197
-1.43823
-1.32239
-1.20525
-1.08763
-0.970405
-0.854439
-0.740616
-0.629817
-0.522922
-0.420801
-0.324301
-0.234232
-0.151358
-0.0763695
-0.00987068
0.0476416
0.0958006
0.134428
0.163547
0.18334
0.194151
0.196458
0.190866
0.178098
0.158999
0.134579
0.106036
0.0747624
0.0423166
0.0103584
-0.0194657
-0.0456446
-0.066899
-0.0822432
-0.0910188
-0.092876
-0.0878932
-0.0760908
-0.0593712
-0.0332881
-0.561288
-0.670158
-0.780982
-0.895283
-1.00994
-1.12704
-1.24907
-1.37737
-1.51297
-1.65672
-1.8092
-1.97076
-2.1415
-2.32143
-2.51044
-2.70843
-2.9153
-3.13102
-3.35563
-3.58923
-3.83199
-4.08415
-4.34601
-4.61787
-4.90007
-5.19294
-5.49681
-5.81194
-6.13858
-6.47688
-6.82693
-7.18869
-7.562
-7.94655
-8.34182
-8.74713
-9.16153
-9.58382
-10.0125
-10.4459
-10.8817
-11.3177
-11.7509
-12.1782
-12.5961
-13.0009
-13.3885
-13.7547
-14.095
-14.4048
-14.6797
-14.9153
-15.1072
-15.2517
-15.345
-15.3839
-15.3665
-15.2908
-15.1559
-14.9613
-14.7076
-14.3961
-14.029
-13.6094
-13.1411
-12.6287
-12.0774
-11.493
-10.8817
-10.2501
-9.6049
-8.95291
-8.3008
-7.65504
-7.02167
-6.4063
-5.8139
-5.2488
-4.71461
-4.21421
-3.74976
-3.32269
-2.9338
-2.58325
-2.27069
-1.9953
-1.75584
-1.55076
-1.37826
-1.23631
-1.12278
-1.03541
-0.971975
-0.93029
-0.908247
-0.903849
-0.915238
-0.940698
-0.978617
-1.02749
-1.08591
-1.15257
-1.22623
-1.30572
-1.3899
-1.47768
-1.56798
-1.65977
-1.75205
-1.84382
-1.93414
-2.0221
-2.1068
-2.18741
-2.26314
-2.33325
-2.39706
-2.45395
-2.50337
-2.54484
-2.57795
-2.60238
-2.61788
-2.62427
-2.62146
-2.60939
-2.58811
-2.55772
-2.51838
-2.47031
-2.41381
-2.34921
-2.2769
-2.19731
-2.11092
-2.01826
-1.91989
-1.81643
-1.70852
-1.59685
-1.48216
-1.36522
-1.24684
-1.12785
-1.00914
-0.891587
-0.776104
-0.663591
-0.554949
-0.451061
-0.352784
-0.260935
-0.176285
-0.0995345
-0.0312977
0.0279215
0.0777595
0.118043
0.148804
0.170244
0.182738
0.186788
0.183013
0.172119
0.154912
0.132329
0.105483
0.0756873
0.0444582
0.0134444
-0.0156908
-0.0414068
-0.0623969
-0.0776573
-0.0865201
-0.0886276
-0.0840363
-0.0727671
-0.0565878
-0.0313476