/*--------------------------------*- C++ -*----------------------------------*\
  =========                 |
  \\      /  F ield         | OpenFOAM: The Open Source CFD Toolbox
   \\    /   O peration     | Website:  https://openfoam.org
    \\  /    A nd           | Version:  9
     \\/     M anipulation  |
\*---------------------------------------------------------------------------*/
FoamFile
{
    format      ascii;
    class       surfaceScalarField;
    location    "0.13";
    object      phi;
}
// * * * * * * * * * * * * * * * * * * * * * * * * * * * * * * * * * * * * * //

dimensions      [0 3 -1 0 0 0 0];

internalField   nonuniform List<scalar> 
24170
(
3.06652e-07
1.21881e-08
2.65676e-07
4.09769e-08
2.33739e-07
3.19365e-08
2.07417e-07
2.63222e-08
1.85736e-07
2.16813e-08
1.67949e-07
1.7787e-08
1.52592e-07
1.53564e-08
1.38845e-07
1.3747e-08
1.26347e-07
1.24981e-08
1.14812e-07
1.15347e-08
1.03908e-07
1.09039e-08
9.33357e-08
1.05726e-08
8.30206e-08
1.03151e-08
7.34544e-08
9.56624e-09
6.66116e-08
6.8428e-09
6.83361e-08
-1.7245e-09
9.89733e-08
-3.06372e-08
6.58139e-08
3.31594e-08
3.44889e-07
9.0237e-09
3.3649e-07
4.93765e-08
3.21079e-07
4.73476e-08
3.04144e-07
4.32565e-08
2.86686e-07
3.91398e-08
2.68946e-07
3.55272e-08
2.51157e-07
3.31447e-08
2.33517e-07
3.13872e-08
2.1629e-07
2.97255e-08
1.99662e-07
2.81628e-08
1.83627e-07
2.69386e-08
1.68012e-07
2.61877e-08
1.52627e-07
2.56998e-08
1.37641e-07
2.45524e-08
1.24207e-07
2.02773e-08
1.16297e-07
6.185e-09
1.09646e-07
-2.39856e-08
1.16039e-07
5.94207e-08
3.64416e-07
1.0859e-08
3.66018e-07
4.77746e-08
3.60144e-07
5.32216e-08
3.50307e-07
5.30933e-08
3.37411e-07
5.20358e-08
3.22121e-07
5.0818e-08
3.05128e-07
5.01374e-08
2.87042e-07
4.94731e-08
2.68474e-07
4.82936e-08
2.49943e-07
4.66935e-08
2.31738e-07
4.51439e-08
2.13873e-07
4.40524e-08
1.96184e-07
4.33891e-08
1.78574e-07
4.21624e-08
1.61351e-07
3.75007e-08
1.44642e-07
2.28935e-08
1.19059e-07
1.5977e-09
1.47543e-07
8.75547e-08
3.91668e-07
1.173e-08
3.94255e-07
4.5187e-08
3.92078e-07
5.53992e-08
3.85906e-07
5.92649e-08
3.76133e-07
6.18084e-08
3.63137e-07
6.38143e-08
3.47507e-07
6.57674e-08
3.29907e-07
6.7073e-08
3.11072e-07
6.71288e-08
2.91701e-07
6.60648e-08
2.72285e-07
6.45595e-08
2.53009e-07
6.33288e-08
2.33775e-07
6.26225e-08
2.14339e-07
6.15983e-08
1.94321e-07
5.75187e-08
1.71716e-07
4.5499e-08
1.38983e-07
3.43304e-08
1.69995e-07
1.16531e-07
4.20677e-07
1.17656e-08
4.23212e-07
4.26519e-08
4.22692e-07
5.59195e-08
4.18641e-07
6.33159e-08
4.11025e-07
6.9424e-08
3.99918e-07
7.4922e-08
3.85708e-07
7.9977e-08
3.68977e-07
8.38043e-08
3.50444e-07
8.56616e-08
3.30862e-07
8.56466e-08
3.10834e-07
8.4588e-08
2.90667e-07
8.34953e-08
2.70346e-07
8.29437e-08
2.49554e-07
8.23899e-08
2.27487e-07
7.95862e-08
2.01471e-07
7.15148e-08
1.6629e-07
6.95119e-08
1.88533e-07
1.47752e-07
4.5113e-07
1.15447e-08
4.53532e-07
4.02497e-08
4.53831e-07
5.56202e-08
4.5107e-07
6.60774e-08
4.4495e-07
7.55431e-08
4.35339e-07
8.45334e-08
4.22451e-07
9.28655e-08
4.06743e-07
9.9512e-08
3.88852e-07
1.03553e-07
3.69497e-07
1.05002e-07
3.49312e-07
1.04773e-07
3.28684e-07
1.04123e-07
3.07673e-07
1.03955e-07
2.8596e-07
1.04103e-07
2.62565e-07
1.02981e-07
2.34863e-07
9.92168e-08
1.99727e-07
1.04648e-07
2.0551e-07
1.82749e-07
4.83518e-07
1.12991e-08
4.85717e-07
3.80508e-08
4.86375e-07
5.49617e-08
4.8438e-07
6.80719e-08
4.79288e-07
8.06358e-08
4.70841e-07
9.29799e-08
4.59129e-07
1.04578e-07
4.4449e-07
1.14151e-07
4.27449e-07
1.20593e-07
4.08644e-07
1.23806e-07
3.88683e-07
1.24734e-07
3.67986e-07
1.2482e-07
3.46683e-07
1.25258e-07
3.24499e-07
1.26286e-07
3.0047e-07
1.27011e-07
2.72378e-07
1.27309e-07
2.38857e-07
1.38169e-07
2.2198e-07
2.22387e-07
5.18184e-07
1.10733e-08
5.20092e-07
3.61425e-08
5.20829e-07
5.42252e-08
5.19258e-07
6.96428e-08
5.14858e-07
8.50355e-08
5.07315e-07
1.00523e-07
4.96634e-07
1.15259e-07
4.83058e-07
1.27726e-07
4.67002e-07
1.3665e-07
4.48996e-07
1.41812e-07
4.29586e-07
1.44144e-07
4.09194e-07
1.45211e-07
3.88004e-07
1.46448e-07
3.65821e-07
1.48469e-07
3.41821e-07
1.51012e-07
3.14351e-07
1.54778e-07
2.83319e-07
1.69201e-07
2.38259e-07
2.6704e-07
5.55336e-07
1.08709e-08
5.56903e-07
3.45761e-08
5.57549e-07
5.35789e-08
5.56178e-07
7.10132e-08
5.52241e-07
8.89727e-08
5.45407e-07
1.07357e-07
5.35638e-07
1.25028e-07
5.23105e-07
1.4026e-07
5.08122e-07
1.51633e-07
4.91115e-07
1.58819e-07
4.72547e-07
1.62712e-07
4.52819e-07
1.6494e-07
4.32153e-07
1.67114e-07
4.10454e-07
1.70169e-07
3.87104e-07
1.74361e-07
3.61024e-07
1.80858e-07
3.32903e-07
1.97322e-07
2.5418e-07
3.16982e-07
5.95154e-07
1.06942e-08
5.96374e-07
3.33561e-08
5.96841e-07
5.31127e-08
5.95534e-07
7.23194e-08
5.91912e-07
9.25949e-08
5.85657e-07
1.13612e-07
5.76716e-07
1.3397e-07
5.65209e-07
1.51766e-07
5.51374e-07
1.65468e-07
5.35534e-07
1.74659e-07
5.18069e-07
1.80176e-07
4.99345e-07
1.83664e-07
4.79613e-07
1.86846e-07
4.58875e-07
1.90907e-07
4.36745e-07
1.96491e-07
4.12637e-07
2.04966e-07
3.87637e-07
2.22322e-07
2.69306e-07
3.72511e-07
6.37834e-07
1.05412e-08
6.38735e-07
3.24555e-08
6.38993e-07
5.28545e-08
6.37686e-07
7.36259e-08
6.34303e-07
9.59781e-08
6.2856e-07
1.19355e-07
6.20406e-07
1.42124e-07
6.09934e-07
1.62238e-07
5.97318e-07
1.78084e-07
5.82799e-07
1.89178e-07
5.66678e-07
1.96297e-07
5.49281e-07
2.01062e-07
5.30874e-07
2.05252e-07
5.11555e-07
2.10227e-07
4.91157e-07
2.16888e-07
4.69479e-07
2.26644e-07
4.47747e-07
2.44055e-07
2.83121e-07
4.33932e-07
5.74203e-07
1.04218e-08
5.74752e-07
3.19059e-08
5.74831e-07
5.27761e-08
5.73729e-07
7.47277e-08
5.71048e-07
9.86589e-08
5.66586e-07
1.23817e-07
5.6031e-07
1.484e-07
5.52288e-07
1.7026e-07
5.42634e-07
1.87738e-07
5.31501e-07
2.00311e-07
5.19093e-07
2.08706e-07
5.05651e-07
2.14504e-07
4.9141e-07
2.19493e-07
4.76513e-07
2.25123e-07
4.60971e-07
2.32431e-07
4.44848e-07
2.42767e-07
4.29175e-07
2.59728e-07
2.93213e-07
4.19083e-07
6.99938e-07
1.0299e-08
7.00409e-07
3.14348e-08
7.00381e-07
5.28043e-08
6.99157e-07
7.59524e-08
6.96328e-07
1.01487e-07
6.91703e-07
1.28443e-07
6.85262e-07
1.54841e-07
6.7708e-07
1.78442e-07
6.67259e-07
1.97559e-07
6.55929e-07
2.11641e-07
6.43275e-07
2.2136e-07
6.29542e-07
2.28236e-07
6.15001e-07
2.34035e-07
5.99872e-07
2.40252e-07
5.84297e-07
2.48006e-07
5.68527e-07
2.58537e-07
5.53737e-07
2.74517e-07
3.02597e-07
5.44352e-07
8.53229e-07
1.01549e-08
8.53653e-07
3.10105e-08
8.5359e-07
5.28669e-08
8.5237e-07
7.71731e-08
8.49594e-07
1.04262e-07
8.45094e-07
1.32943e-07
8.38875e-07
1.6106e-07
8.3102e-07
1.86297e-07
8.21623e-07
2.06956e-07
8.1079e-07
2.22474e-07
7.98682e-07
2.33468e-07
7.85542e-07
2.41377e-07
7.7167e-07
2.47906e-07
7.57368e-07
2.54554e-07
7.4291e-07
2.62464e-07
7.28716e-07
2.72731e-07
7.15996e-07
2.87238e-07
3.10189e-07
7.08404e-07
1.04013e-06
9.94787e-09
1.04063e-06
3.0507e-08
1.04076e-06
5.27413e-08
1.03987e-06
7.806e-08
1.0376e-06
1.06537e-07
1.03379e-06
1.36746e-07
1.02849e-06
1.66362e-07
1.02178e-06
1.93006e-07
1.01375e-06
2.14991e-07
1.00447e-06
2.31751e-07
9.94087e-07
2.43851e-07
9.8283e-07
2.52634e-07
9.71022e-07
2.59714e-07
9.59031e-07
2.66545e-07
9.47245e-07
2.7425e-07
9.36201e-07
2.83775e-07
9.27054e-07
2.96386e-07
3.14539e-07
9.22703e-07
1.26803e-06
9.59522e-09
1.2689e-06
2.96402e-08
1.26969e-06
5.19525e-08
1.26981e-06
7.79355e-08
1.26891e-06
1.07434e-07
1.26687e-06
1.38791e-07
1.26371e-06
1.69526e-07
1.2595e-06
1.97213e-07
1.25431e-06
2.20182e-07
1.24818e-06
2.37876e-07
1.24123e-06
2.50805e-07
1.23366e-06
2.60203e-07
1.22581e-06
2.67566e-07
1.21808e-06
2.74272e-07
1.21094e-06
2.8139e-07
1.20498e-06
2.89732e-07
1.20124e-06
3.00128e-07
3.13874e-07
1.20191e-06
1.54597e-06
8.94613e-09
1.5477e-06
2.79025e-08
1.55001e-06
4.96486e-08
1.55235e-06
7.5596e-08
1.55437e-06
1.05413e-07
1.55591e-06
1.37247e-07
1.55694e-06
1.68495e-07
1.55746e-06
1.96696e-07
1.55745e-06
2.20196e-07
1.55689e-06
2.38435e-07
1.55584e-06
2.51857e-07
1.55447e-06
2.61571e-07
1.55309e-06
2.6894e-07
1.55213e-06
2.75239e-07
1.55205e-06
2.81465e-07
1.55345e-06
2.88332e-07
1.55718e-06
2.96397e-07
3.06275e-07
1.56478e-06
1.88496e-06
7.74896e-09
1.88837e-06
2.44899e-08
1.89355e-06
4.44741e-08
1.90002e-06
6.91289e-08
1.9074e-06
9.80257e-08
1.91545e-06
1.29204e-07
1.92394e-06
1.60003e-07
1.93268e-06
1.87951e-07
1.94148e-06
2.11395e-07
1.95018e-06
2.29738e-07
1.95871e-06
2.43324e-07
1.96717e-06
2.53113e-07
1.9758e-06
2.60311e-07
1.98497e-06
2.66067e-07
1.99514e-06
2.71301e-07
2.00682e-06
2.76654e-07
2.02067e-06
2.82542e-07
2.8926e-07
2.03769e-06
2.29847e-06
5.60815e-09
2.30475e-06
1.82129e-08
2.31479e-06
3.44398e-08
2.32816e-06
5.5751e-08
2.34446e-06
8.17287e-08
2.36322e-06
1.10446e-07
2.38393e-06
1.39291e-07
2.40606e-06
1.65824e-07
2.42908e-06
1.88376e-07
2.45255e-06
2.06266e-07
2.47618e-06
2.19689e-07
2.49988e-06
2.29417e-07
2.52372e-06
2.36472e-07
2.54793e-06
2.41859e-07
2.57282e-06
2.4641e-07
2.59875e-06
2.5072e-07
2.62613e-06
2.55166e-07
2.59945e-07
2.65544e-06
1.6831e-06
3.58099e-09
1.68915e-06
1.21644e-08
1.699e-06
2.45908e-08
1.71235e-06
4.23925e-08
1.72889e-06
6.51914e-08
1.7482e-06
9.11393e-08
1.76978e-06
1.17707e-07
1.79311e-06
1.42491e-07
1.81768e-06
1.63807e-07
1.84305e-06
1.80902e-07
1.86887e-06
1.93861e-07
1.89497e-06
2.03324e-07
1.92125e-06
2.10185e-07
1.94777e-06
2.15346e-07
1.97461e-06
2.19568e-07
2.00192e-06
2.23413e-07
2.02983e-06
2.27246e-07
2.31274e-07
2.05851e-06
1.46548e-06
1.55791e-09
1.47171e-06
5.93929e-09
1.48188e-06
1.44124e-08
1.49567e-06
2.86062e-08
1.51274e-06
4.81173e-08
1.53272e-06
7.11593e-08
1.55516e-06
9.52743e-08
1.57956e-06
1.18085e-07
1.60548e-06
1.3789e-07
1.63249e-06
1.53891e-07
1.66026e-06
1.66095e-07
1.68854e-06
1.75043e-07
1.71719e-06
1.8153e-07
1.74617e-06
1.86369e-07
1.77549e-06
1.90253e-07
1.8052e-06
1.93697e-07
1.8354e-06
1.97045e-07
2.00503e-07
1.86618e-06
1.27586e-06
-2.90154e-10
1.28196e-06
-1.55571e-10
1.29189e-06
4.47689e-09
1.3052e-06
1.52964e-08
1.3216e-06
3.172e-08
1.34077e-06
5.19904e-08
1.36235e-06
7.36955e-08
1.38597e-06
9.44635e-08
1.41126e-06
1.12594e-07
1.43788e-06
1.27277e-07
1.46549e-06
1.38481e-07
1.49385e-06
1.46688e-07
1.52276e-06
1.5262e-07
1.55211e-06
1.57017e-07
1.58185e-06
1.60507e-07
1.612e-06
1.63553e-07
1.64258e-06
1.66463e-07
1.69432e-07
1.67365e-06
1.11058e-06
-1.77263e-09
1.11634e-06
-5.92439e-09
1.12566e-06
-4.83829e-09
1.1379e-06
3.05887e-09
1.15285e-06
1.67712e-08
1.17028e-06
3.45548e-08
1.18997e-06
5.40062e-08
1.21169e-06
7.27455e-08
1.23518e-06
8.91043e-08
1.26015e-06
1.02309e-07
1.28629e-06
1.12334e-07
1.31335e-06
1.19633e-07
1.34109e-06
1.24877e-07
1.36937e-06
1.28741e-07
1.39808e-06
1.31791e-07
1.4272e-06
1.34435e-07
1.45673e-06
1.36937e-07
1.39465e-07
1.48669e-06
9.66471e-07
-2.72191e-09
9.71835e-07
-1.12883e-08
9.80298e-07
-1.3302e-08
9.91095e-07
-7.73733e-09
1.00412e-06
3.74655e-09
1.01926e-06
1.94177e-08
1.03644e-06
3.682e-08
1.05562e-06
5.35676e-08
1.07664e-06
6.80832e-08
1.09926e-06
7.96904e-08
1.12319e-06
8.84084e-08
1.14813e-06
9.46897e-08
1.17384e-06
9.91643e-08
1.20013e-06
1.02449e-07
1.22688e-06
1.05041e-07
1.25403e-06
1.0729e-07
1.28155e-06
1.09412e-07
1.11539e-07
1.30948e-06
8.40792e-07
-2.97833e-09
8.4582e-07
-1.63162e-08
8.53281e-07
-2.07637e-08
8.62365e-07
-1.68206e-08
8.73109e-07
-6.9982e-09
8.8554e-07
6.98678e-09
8.99834e-07
2.25268e-08
9.16118e-07
3.72829e-08
9.3434e-07
4.98612e-08
9.54274e-07
5.97567e-08
9.75611e-07
6.70717e-08
9.98032e-07
7.22684e-08
1.02126e-06
7.59369e-08
1.04508e-06
7.86272e-08
1.06936e-06
8.07658e-08
1.09401e-06
8.26371e-08
1.11901e-06
8.44074e-08
8.61698e-08
1.14438e-06
7.30859e-07
-2.10881e-09
7.35931e-07
-2.13879e-08
7.42243e-07
-2.70761e-08
7.49281e-07
-2.38592e-08
7.57337e-07
-1.50538e-08
7.6667e-07
-2.34631e-09
7.77789e-07
1.14077e-08
7.91009e-07
2.40635e-08
8.06327e-07
3.45425e-08
8.2349e-07
4.25943e-08
8.42137e-07
4.84249e-08
8.61904e-07
5.25008e-08
8.82483e-07
5.53576e-08
9.03647e-07
5.74642e-08
9.25247e-07
5.91654e-08
9.47206e-07
6.06776e-08
9.69496e-07
6.21183e-08
6.35446e-08
9.92121e-07
6.34017e-07
8.80732e-10
6.39851e-07
-2.72215e-08
6.44675e-07
-3.19005e-08
6.49097e-07
-2.82814e-08
6.53855e-07
-1.98114e-08
6.59662e-07
-8.15349e-09
6.67394e-07
3.67619e-09
6.7753e-07
1.39268e-08
6.90023e-07
2.205e-08
7.0451e-07
2.81073e-08
7.20543e-07
3.23916e-08
7.37703e-07
3.53412e-08
7.55654e-07
3.74064e-08
7.74163e-07
3.89548e-08
7.93089e-07
4.02397e-08
8.1236e-07
4.14068e-08
8.3195e-07
4.2528e-08
4.36353e-08
8.51859e-07
5.49007e-07
6.42039e-09
5.55835e-07
-3.40499e-08
5.57644e-07
-3.3709e-08
5.58111e-07
-2.87483e-08
5.58567e-07
-2.02681e-08
5.60296e-07
-9.88191e-09
5.64537e-07
-5.65115e-10
5.71744e-07
6.72001e-09
5.81637e-07
1.21567e-08
5.93653e-07
1.60918e-08
6.07227e-07
1.88173e-08
6.2189e-07
2.06776e-08
6.373e-07
2.19964e-08
6.53235e-07
2.30203e-08
6.69568e-07
2.39061e-08
6.86243e-07
2.4732e-08
7.03246e-07
2.55255e-08
2.63041e-08
7.20577e-07
4.85217e-07
3.9638e-09
4.837e-07
-3.25328e-08
4.76819e-07
-2.68274e-08
4.69074e-07
-2.10033e-08
4.63087e-07
-1.42815e-08
4.60066e-07
-6.8609e-09
4.60855e-07
-1.35406e-09
4.65464e-07
2.11068e-09
4.73017e-07
4.60449e-09
4.82696e-07
6.41209e-09
4.9385e-07
7.66381e-09
5.06e-07
8.52767e-09
5.18831e-07
9.16549e-09
5.32157e-07
9.69417e-09
5.45884e-07
1.01792e-08
5.5997e-07
1.06456e-08
5.74411e-07
1.10851e-08
1.14986e-08
5.89216e-07
4.24231e-07
3.91699e-07
3.64871e-07
3.43868e-07
3.29586e-07
3.22725e-07
3.21371e-07
3.23482e-07
3.28087e-07
3.34499e-07
3.42162e-07
3.5069e-07
3.59856e-07
3.6955e-07
3.79729e-07
3.90375e-07
4.0146e-07
4.12958e-07
1.3632e-07
-1.3632e-07
3.41015e-07
-2.04695e-07
5.48508e-07
-2.07493e-07
7.34151e-07
-1.85643e-07
8.87824e-07
-1.53672e-07
1.00502e-06
-1.17195e-07
1.08347e-06
-7.84473e-08
1.12201e-06
-3.85479e-08
1.12147e-06
5.46194e-10
1.0772e-06
4.42632e-08
9.99484e-07
7.77205e-08
8.99746e-07
9.9738e-08
7.90987e-07
1.08759e-07
6.84406e-07
1.06581e-07
5.87019e-07
9.7387e-08
5.00373e-07
8.66456e-08
4.21002e-07
7.93709e-08
3.4263e-07
7.83721e-08
2.58655e-07
8.39752e-08
1.63837e-07
9.48176e-08
5.57035e-08
1.08134e-07
-6.6198e-08
1.21902e-07
-2.01215e-07
1.35017e-07
-3.47484e-07
1.46269e-07
-5.0284e-07
1.55356e-07
-6.6508e-07
1.6224e-07
-8.32065e-07
1.66986e-07
-1.00181e-06
1.69746e-07
-1.17255e-06
1.70739e-07
-1.34277e-06
1.70216e-07
-1.51121e-06
1.68439e-07
-1.67687e-06
1.65661e-07
-1.83898e-06
1.62113e-07
-1.99697e-06
1.57992e-07
-2.15043e-06
1.53461e-07
-2.29908e-06
1.48647e-07
-2.44272e-06
1.43641e-07
-2.58123e-06
1.38505e-07
-2.7145e-06
1.33275e-07
-2.84247e-06
1.27967e-07
-2.96505e-06
1.22579e-07
-3.08215e-06
1.17101e-07
-3.19366e-06
1.11511e-07
-3.29944e-06
1.05786e-07
-3.39934e-06
9.9898e-08
-3.49316e-06
9.38216e-08
-3.58069e-06
8.75313e-08
-3.6617e-06
8.10049e-08
-3.73592e-06
7.42237e-08
-3.8031e-06
6.71733e-08
-3.86294e-06
5.98443e-08
-3.91517e-06
5.22333e-08
-3.95952e-06
4.4343e-08
-3.9957e-06
3.61852e-08
-4.02348e-06
2.77815e-08
-4.04267e-06
1.91832e-08
-4.05321e-06
1.05405e-08
-4.05526e-06
2.05171e-09
-4.04986e-06
-5.39588e-09
-4.03745e-06
-1.24128e-08
-4.01837e-06
-1.90756e-08
-3.99287e-06
-2.55045e-08
-3.96114e-06
-3.17269e-08
-3.92341e-06
-3.77314e-08
-3.87992e-06
-4.34891e-08
-3.83096e-06
-4.89642e-08
-3.77684e-06
-5.41183e-08
-3.71793e-06
-5.89133e-08
-3.65461e-06
-6.33128e-08
-3.58733e-06
-6.72839e-08
-3.51653e-06
-7.07974e-08
-3.4427e-06
-7.38291e-08
-3.36634e-06
-7.63602e-08
-3.28797e-06
-7.83775e-08
-3.20809e-06
-7.98743e-08
-3.12724e-06
-8.08501e-08
-3.04593e-06
-8.13105e-08
-2.96466e-06
-8.12675e-08
-2.88392e-06
-8.07386e-08
-2.80418e-06
-7.97462e-08
-2.72586e-06
-7.83175e-08
-2.64938e-06
-7.64828e-08
-2.5751e-06
-7.42752e-08
-2.50337e-06
-7.17293e-08
-2.43449e-06
-6.88807e-08
-2.36873e-06
-6.57646e-08
-2.30631e-06
-6.24158e-08
-2.24744e-06
-5.88684e-08
-2.19229e-06
-5.51549e-08
-2.14098e-06
-5.13073e-08
-2.09363e-06
-4.73563e-08
-2.05029e-06
-4.33315e-08
-2.01103e-06
-3.92625e-08
-1.97585e-06
-3.51784e-08
-1.94474e-06
-3.11096e-08
-1.91766e-06
-2.70879e-08
-1.89451e-06
-2.31473e-08
-1.87518e-06
-1.93235e-08
-1.85953e-06
-1.56533e-08
-1.84736e-06
-1.21732e-08
-1.83844e-06
-8.91686e-09
-1.83253e-06
-5.91266e-09
-1.82937e-06
-3.16343e-09
-1.82891e-06
-4.54848e-10
-1.83078e-06
1.87332e-09
-1.83501e-06
4.22429e-09
-1.8413e-06
6.29299e-09
-1.84926e-06
7.95949e-09
-1.85844e-06
9.17496e-09
-1.86835e-06
9.91681e-09
-1.87853e-06
1.01767e-08
-1.88848e-06
9.95601e-09
-1.89774e-06
9.25911e-09
-1.90584e-06
8.09784e-09
-1.91234e-06
6.49423e-09
-1.91682e-06
4.48124e-09
-1.91893e-06
2.10912e-09
-1.91859e-06
-3.40536e-10
-1.91583e-06
-2.75814e-09
-1.91057e-06
-5.25382e-09
-1.90271e-06
-7.86266e-09
-1.89212e-06
-1.05902e-08
-1.8787e-06
-1.34239e-08
-1.86235e-06
-1.63479e-08
-1.843e-06
-1.93461e-08
-1.8206e-06
-2.24035e-08
-1.79509e-06
-2.55066e-08
-1.76645e-06
-2.86431e-08
-1.73465e-06
-3.18024e-08
-1.69967e-06
-3.49752e-08
-1.66152e-06
-3.81535e-08
-1.62019e-06
-4.13308e-08
-1.57569e-06
-4.45014e-08
-1.52803e-06
-4.76606e-08
-1.47722e-06
-5.08041e-08
-1.42329e-06
-5.3928e-08
-1.36627e-06
-5.70282e-08
-1.30616e-06
-6.01013e-08
-1.24302e-06
-6.31439e-08
-1.17687e-06
-6.61543e-08
-1.10774e-06
-6.91307e-08
-1.03567e-06
-7.20614e-08
-9.60741e-07
-7.4933e-08
-8.8296e-07
-7.77813e-08
-8.02267e-07
-8.06925e-08
-7.18471e-07
-8.37965e-08
-6.31487e-07
-8.69835e-08
-5.42805e-07
-8.86818e-08
-4.52993e-07
-8.98129e-08
-3.622e-07
-9.07924e-08
-2.68486e-07
-9.37144e-08
-1.72241e-07
-9.62443e-08
-7.57207e-08
-9.65207e-08
2.36621e-08
-9.93828e-08
1.23062e-07
-9.94e-08
2.21559e-07
-9.84973e-08
3.22606e-07
-1.01047e-07
4.22813e-07
-1.00207e-07
5.21636e-07
-9.88226e-08
6.1724e-07
-9.56037e-08
7.08245e-07
-9.10054e-08
8.01538e-07
-9.32929e-08
8.87303e-07
-8.57649e-08
9.69398e-07
-8.20955e-08
1.04804e-06
-7.86435e-08
1.11987e-06
-7.1827e-08
1.18226e-06
-6.23882e-08
1.23347e-06
-5.12132e-08
1.28006e-06
-4.65863e-08
1.31744e-06
-3.7384e-08
1.34481e-06
-2.73665e-08
1.35897e-06
-1.41627e-08
1.35584e-06
3.12724e-09
1.33427e-06
2.15677e-08
1.29553e-06
3.87399e-08
1.24041e-06
5.51264e-08
1.16991e-06
7.05028e-08
1.08531e-06
8.46003e-08
9.85273e-07
1.00032e-07
1.13934e-07
8.71339e-07
1.99964e-07
-3.36283e-07
3.69175e-07
-3.73907e-07
4.9718e-07
-3.35498e-07
5.92805e-07
-2.81269e-07
6.60859e-07
-2.21726e-07
7.04155e-07
-1.60491e-07
7.24914e-07
-9.92066e-08
7.25014e-07
-3.86473e-08
7.04905e-07
2.06548e-08
6.71264e-07
7.79039e-08
6.19097e-07
1.29888e-07
5.47163e-07
1.71672e-07
4.56504e-07
1.99418e-07
3.49785e-07
2.133e-07
2.29103e-07
2.18069e-07
9.50759e-08
2.20673e-07
-5.23328e-08
2.2678e-07
-2.12838e-07
2.38877e-07
-3.85159e-07
2.56296e-07
-5.66836e-07
2.76495e-07
-7.55203e-07
2.96502e-07
-9.47359e-07
3.14057e-07
-1.14035e-06
3.28011e-07
-1.332e-06
3.37913e-07
-1.52035e-06
3.43711e-07
-1.70376e-06
3.45643e-07
-1.88092e-06
3.44145e-07
-2.05092e-06
3.39754e-07
-2.21322e-06
3.3304e-07
-2.36756e-06
3.24553e-07
-2.51391e-06
3.14786e-07
-2.65241e-06
3.04161e-07
-2.78331e-06
2.93015e-07
-2.90692e-06
2.81607e-07
-3.02358e-06
2.70119e-07
-3.13361e-06
2.58671e-07
-3.2373e-06
2.47331e-07
-3.33491e-06
2.36123e-07
-3.42668e-06
2.25042e-07
-3.51278e-06
2.14061e-07
-3.59333e-06
2.03137e-07
-3.66846e-06
1.92223e-07
-3.73821e-06
1.81266e-07
-3.80264e-06
1.70215e-07
-3.86177e-06
1.59023e-07
-3.91559e-06
1.47647e-07
-3.96411e-06
1.36053e-07
-4.00733e-06
1.24217e-07
-4.04522e-06
1.1212e-07
-4.07781e-06
9.97584e-08
-4.1051e-06
8.71366e-08
-4.12714e-06
7.42731e-08
-4.144e-06
6.11997e-08
-4.15578e-06
4.79652e-08
-4.16263e-06
3.46355e-08
-4.16474e-06
2.12978e-08
-4.16224e-06
8.03649e-09
-4.15506e-06
-5.12552e-09
-4.14227e-06
-1.81852e-08
-4.12349e-06
-3.12005e-08
-4.09852e-06
-4.40448e-08
-4.06739e-06
-5.66321e-08
-4.03023e-06
-6.88886e-08
-3.98722e-06
-8.07374e-08
-3.93861e-06
-9.20982e-08
-3.88469e-06
-1.02889e-07
-3.82578e-06
-1.13027e-07
-3.76226e-06
-1.22432e-07
-3.69454e-06
-1.31032e-07
-3.62307e-06
-1.38756e-07
-3.54832e-06
-1.45545e-07
-3.47081e-06
-1.51347e-07
-3.39104e-06
-1.56123e-07
-3.30958e-06
-1.59843e-07
-3.22696e-06
-1.62492e-07
-3.14374e-06
-1.64066e-07
-3.06048e-06
-1.64573e-07
-2.97771e-06
-1.64037e-07
-2.89596e-06
-1.62489e-07
-2.81573e-06
-1.59975e-07
-2.7375e-06
-1.56551e-07
-2.6617e-06
-1.52279e-07
-2.58875e-06
-1.47232e-07
-2.51899e-06
-1.41486e-07
-2.45275e-06
-1.35122e-07
-2.39029e-06
-1.28223e-07
-2.33183e-06
-1.20874e-07
-2.27754e-06
-1.13156e-07
-2.22754e-06
-1.05154e-07
-2.1819e-06
-9.69459e-08
-2.14065e-06
-8.86078e-08
-2.10377e-06
-8.02117e-08
-2.07121e-06
-7.18248e-08
-2.04288e-06
-6.351e-08
-2.01866e-06
-5.53265e-08
-1.99842e-06
-4.73302e-08
-1.98199e-06
-3.95755e-08
-1.9692e-06
-3.2115e-08
-1.95985e-06
-2.50005e-08
-1.95374e-06
-1.82825e-08
-1.95065e-06
-1.20066e-08
-1.95036e-06
-6.21103e-09
-1.95263e-06
-8.91979e-10
-1.95699e-06
3.90705e-09
-1.96317e-06
8.04987e-09
-1.97044e-06
1.14969e-08
-1.97837e-06
1.42262e-08
-1.98661e-06
1.62023e-08
-1.99484e-06
1.74054e-08
-2.00276e-06
1.78334e-08
-2.01008e-06
1.75002e-08
-2.01656e-06
1.6433e-08
-2.02197e-06
1.46704e-08
-2.02614e-06
1.22623e-08
-2.02891e-06
9.27104e-09
-2.0302e-06
5.76992e-09
-2.02993e-06
1.8363e-09
-2.02781e-06
-2.4646e-09
-2.02345e-06
-7.11497e-09
-2.0166e-06
-1.20992e-08
-2.0071e-06
-1.73666e-08
-1.99481e-06
-2.28813e-08
-1.97962e-06
-2.86088e-08
-1.96146e-06
-3.45152e-08
-1.94023e-06
-4.05682e-08
-1.9159e-06
-4.67378e-08
-1.88841e-06
-5.29966e-08
-1.85773e-06
-5.932e-08
-1.82385e-06
-6.56861e-08
-1.78675e-06
-7.20758e-08
-1.74643e-06
-7.84726e-08
-1.7029e-06
-8.48622e-08
-1.65617e-06
-9.12324e-08
-1.60625e-06
-9.75727e-08
-1.55319e-06
-1.03874e-07
-1.49699e-06
-1.10127e-07
-1.43769e-06
-1.16325e-07
-1.37533e-06
-1.2246e-07
-1.30995e-06
-1.28526e-07
-1.24159e-06
-1.34518e-07
-1.17028e-06
-1.40433e-07
-1.09608e-06
-1.46262e-07
-1.01901e-06
-1.52002e-07
-9.39123e-07
-1.57673e-07
-8.56489e-07
-1.63326e-07
-7.71279e-07
-1.69007e-07
-6.83914e-07
-1.74349e-07
-5.9406e-07
-1.78535e-07
-5.01903e-07
-1.8197e-07
-4.07777e-07
-1.84919e-07
-3.11305e-07
-1.90186e-07
-2.14327e-07
-1.93222e-07
-1.15376e-07
-1.95471e-07
-1.55606e-08
-1.99199e-07
8.58645e-08
-2.00825e-07
1.87635e-07
-2.00268e-07
2.87799e-07
-2.0121e-07
3.89117e-07
-2.01525e-07
4.88779e-07
-1.98484e-07
5.88039e-07
-1.94865e-07
6.85464e-07
-1.8843e-07
7.77115e-07
-1.84944e-07
8.68436e-07
-1.77085e-07
9.54232e-07
-1.67892e-07
1.03489e-06
-1.593e-07
1.1095e-06
-1.46435e-07
1.17805e-06
-1.30942e-07
1.23933e-06
-1.12493e-07
1.29016e-06
-9.7412e-08
1.3327e-06
-7.99262e-08
1.36602e-06
-6.06922e-08
1.39026e-06
-3.83961e-08
1.40547e-06
-1.20827e-08
1.4101e-06
1.69352e-08
1.4009e-06
4.794e-08
1.37608e-06
7.99474e-08
1.33434e-06
1.12244e-07
1.27532e-06
1.43614e-07
1.19853e-06
1.76828e-07
2.07902e-07
1.10456e-06
1.34643e-07
-4.70926e-07
2.1735e-07
-4.56613e-07
2.67733e-07
-3.85882e-07
2.95381e-07
-3.08917e-07
3.04966e-07
-2.31311e-07
2.98771e-07
-1.54296e-07
2.77965e-07
-7.84004e-08
2.43484e-07
-4.16596e-09
1.96275e-07
6.78631e-08
1.37762e-07
1.36418e-07
6.86932e-08
1.98956e-07
-1.17178e-08
2.52083e-07
-1.05896e-07
2.93596e-07
-2.1701e-07
3.24415e-07
-3.47268e-07
3.48326e-07
-4.96357e-07
3.69763e-07
-6.61204e-07
3.91627e-07
-8.36784e-07
4.14457e-07
-1.01745e-06
4.36964e-07
-1.19815e-06
4.57193e-07
-1.37513e-06
4.73479e-07
-1.54595e-06
4.84885e-07
-1.70914e-06
4.91193e-07
-1.86389e-06
4.92668e-07
-2.01002e-06
4.89838e-07
-2.14774e-06
4.8337e-07
-2.27758e-06
4.73977e-07
-2.40018e-06
4.62356e-07
-2.51627e-06
4.49135e-07
-2.62657e-06
4.34853e-07
-2.73173e-06
4.19942e-07
-2.83231e-06
4.04738e-07
-2.92877e-06
3.89477e-07
-3.02148e-06
3.7432e-07
-3.11072e-06
3.59354e-07
-3.19666e-06
3.44618e-07
-3.27944e-06
3.30106e-07
-3.3591e-06
3.15783e-07
-3.43565e-06
3.01595e-07
-3.50907e-06
2.87472e-07
-3.57927e-06
2.73341e-07
-3.64617e-06
2.59124e-07
-3.70965e-06
2.44746e-07
-3.76957e-06
2.30138e-07
-3.82579e-06
2.15237e-07
-3.87813e-06
1.9999e-07
-3.92643e-06
1.84353e-07
-3.97051e-06
1.68294e-07
-4.01018e-06
1.51793e-07
-4.04527e-06
1.34845e-07
-4.07559e-06
1.17457e-07
-4.10096e-06
9.96485e-08
-4.12122e-06
8.14545e-08
-4.13617e-06
6.29215e-08
-4.14564e-06
4.41079e-08
-4.14943e-06
2.50792e-08
-4.14729e-06
5.89698e-09
-4.13902e-06
-1.33885e-08
-4.12449e-06
-3.272e-08
-4.1037e-06
-5.19914e-08
-4.07667e-06
-7.1071e-08
-4.04348e-06
-8.98225e-08
-4.00426e-06
-1.08114e-07
-3.95918e-06
-1.25812e-07
-3.90849e-06
-1.42785e-07
-3.85248e-06
-1.58901e-07
-3.79148e-06
-1.74033e-07
-3.72585e-06
-1.88055e-07
-3.65603e-06
-2.00854e-07
-3.58246e-06
-2.12323e-07
-3.50564e-06
-2.22369e-07
-3.42607e-06
-2.30912e-07
-3.34431e-06
-2.3789e-07
-3.26089e-06
-2.43257e-07
-3.1764e-06
-2.46985e-07
-3.0914e-06
-2.49066e-07
-3.00646e-06
-2.49511e-07
-2.92215e-06
-2.48351e-07
-2.839e-06
-2.45635e-07
-2.75755e-06
-2.4143e-07
-2.67828e-06
-2.35819e-07
-2.60166e-06
-2.28899e-07
-2.52811e-06
-2.2078e-07
-2.45802e-06
-2.11582e-07
-2.39171e-06
-2.01432e-07
-2.32947e-06
-1.90464e-07
-2.27153e-06
-1.78813e-07
-2.21807e-06
-1.66615e-07
-2.16922e-06
-1.54006e-07
-2.12505e-06
-1.41117e-07
-2.08558e-06
-1.28075e-07
-2.05079e-06
-1.15001e-07
-2.02061e-06
-1.02009e-07
-1.99491e-06
-8.92052e-08
-1.97355e-06
-7.6687e-08
-1.95633e-06
-6.45457e-08
-1.94304e-06
-5.28656e-08
-1.93343e-06
-4.17252e-08
-1.92724e-06
-3.1198e-08
-1.92417e-06
-2.13533e-08
-1.92392e-06
-1.22556e-08
-1.92617e-06
-3.95667e-09
-1.93055e-06
3.48763e-09
-1.93666e-06
1.00123e-08
-1.94414e-06
1.55297e-08
-1.95264e-06
1.99974e-08
-1.96181e-06
2.3402e-08
-1.97134e-06
2.57338e-08
-1.98093e-06
2.69933e-08
-1.99029e-06
2.71947e-08
-1.99916e-06
2.63667e-08
-2.00728e-06
2.45508e-08
-2.01441e-06
2.17995e-08
-2.02032e-06
1.81745e-08
-2.02479e-06
1.37449e-08
-2.02761e-06
8.58295e-09
-2.02852e-06
2.75596e-09
-2.02731e-06
-3.68025e-09
-2.02375e-06
-1.06777e-08
-2.01767e-06
-1.81743e-08
-2.00893e-06
-2.61049e-08
-1.9974e-06
-3.441e-08
-1.98298e-06
-4.30346e-08
-1.96557e-06
-5.19272e-08
-1.9451e-06
-6.10392e-08
-1.92151e-06
-7.03256e-08
-1.89476e-06
-7.97453e-08
-1.86482e-06
-8.92613e-08
-1.83166e-06
-9.88404e-08
-1.79529e-06
-1.08453e-07
-1.75568e-06
-1.18074e-07
-1.71287e-06
-1.27681e-07
-1.66685e-06
-1.37253e-07
-1.61764e-06
-1.46775e-07
-1.56529e-06
-1.56231e-07
-1.5098e-06
-1.65608e-07
-1.45124e-06
-1.74892e-07
-1.38962e-06
-1.84074e-07
-1.32501e-06
-1.93142e-07
-1.25744e-06
-2.02088e-07
-1.18696e-06
-2.10905e-07
-1.11364e-06
-2.19583e-07
-1.03753e-06
-2.28115e-07
-9.58702e-07
-2.36502e-07
-8.77284e-07
-2.44744e-07
-7.93513e-07
-2.52778e-07
-7.07588e-07
-2.60274e-07
-6.19298e-07
-2.66825e-07
-5.28645e-07
-2.72623e-07
-4.3545e-07
-2.78114e-07
-3.41115e-07
-2.84521e-07
-2.45221e-07
-2.89117e-07
-1.47568e-07
-2.93125e-07
-4.94013e-08
-2.97365e-07
4.96637e-08
-2.9989e-07
1.49679e-07
-3.00283e-07
2.49068e-07
-3.006e-07
3.47815e-07
-3.00272e-07
4.46118e-07
-2.96787e-07
5.4325e-07
-2.91996e-07
6.39198e-07
-2.84378e-07
7.31169e-07
-2.76915e-07
8.20851e-07
-2.66768e-07
9.06772e-07
-2.53813e-07
9.87451e-07
-2.39978e-07
1.06327e-06
-2.22258e-07
1.1336e-06
-2.0127e-07
1.19795e-06
-1.76838e-07
1.25319e-06
-1.52655e-07
1.29997e-06
-1.26707e-07
1.33794e-06
-9.86573e-08
1.36715e-06
-6.76121e-08
1.38791e-06
-3.28435e-08
1.39935e-06
5.49958e-09
1.40021e-06
4.70793e-08
1.38906e-06
9.10924e-08
1.36457e-06
1.36738e-07
1.3257e-06
1.82487e-07
1.27264e-06
2.29881e-07
2.72643e-07
1.2079e-06
4.00169e-08
-5.10943e-07
4.15062e-08
-4.58102e-07
2.85186e-08
-3.72894e-07
4.34998e-09
-2.84748e-07
-2.96805e-08
-1.9728e-07
-7.31677e-08
-1.10809e-07
-1.25996e-07
-2.55719e-08
-1.88033e-07
5.78705e-08
-2.58789e-07
1.38619e-07
-3.37417e-07
2.15046e-07
-4.2349e-07
2.85029e-07
-5.17942e-07
3.46534e-07
-6.23033e-07
3.98688e-07
-7.40974e-07
4.42356e-07
-8.72165e-07
4.79516e-07
-1.0144e-06
5.12002e-07
-1.16344e-06
5.40658e-07
-1.31426e-06
5.65284e-07
-1.46245e-06
5.85151e-07
-1.60485e-06
5.99593e-07
-1.73974e-06
6.08363e-07
-1.86653e-06
6.11683e-07
-1.98545e-06
6.10112e-07
-2.09717e-06
6.04388e-07
-2.20263e-06
5.95296e-07
-2.30285e-06
5.83589e-07
-2.39882e-06
5.69947e-07
-2.49141e-06
5.5495e-07
-2.58135e-06
5.39073e-07
-2.66919e-06
5.22687e-07
-2.75531e-06
5.06069e-07
-2.83998e-06
4.8941e-07
-2.92334e-06
4.72829e-07
-3.00541e-06
4.56389e-07
-3.08616e-06
4.40105e-07
-3.16549e-06
4.23955e-07
-3.24328e-06
4.07891e-07
-3.31934e-06
3.91846e-07
-3.39349e-06
3.7574e-07
-3.4655e-06
3.59488e-07
-3.53516e-06
3.42999e-07
-3.60222e-06
3.26186e-07
-3.66644e-06
3.08965e-07
-3.72756e-06
2.91258e-07
-3.78532e-06
2.72996e-07
-3.83945e-06
2.54122e-07
-3.88969e-06
2.34588e-07
-3.93575e-06
2.14362e-07
-3.97739e-06
1.93424e-07
-4.01431e-06
1.71772e-07
-4.04627e-06
1.49417e-07
-4.07301e-06
1.26386e-07
-4.09428e-06
1.02723e-07
-4.10985e-06
7.84889e-08
-4.11949e-06
5.37559e-08
-4.12303e-06
2.86115e-08
-4.12028e-06
3.15032e-09
-4.11114e-06
-2.25274e-08
-4.09556e-06
-4.82957e-08
-4.07355e-06
-7.40014e-08
-4.04515e-06
-9.94723e-08
-4.01045e-06
-1.24529e-07
-3.96957e-06
-1.48989e-07
-3.92272e-06
-1.72667e-07
-3.87012e-06
-1.9538e-07
-3.81208e-06
-2.16945e-07
-3.74893e-06
-2.37185e-07
-3.68105e-06
-2.55929e-07
-3.60889e-06
-2.73018e-07
-3.5329e-06
-2.88308e-07
-3.4536e-06
-3.01669e-07
-3.37152e-06
-3.12992e-07
-3.28722e-06
-3.22189e-07
-3.20129e-06
-3.29195e-07
-3.1143e-06
-3.33972e-07
-3.02686e-06
-3.36505e-07
-2.93956e-06
-3.36808e-07
-2.85299e-06
-3.34921e-07
-2.76772e-06
-3.30908e-07
-2.68429e-06
-3.24859e-07
-2.60322e-06
-3.16887e-07
-2.525e-06
-3.07124e-07
-2.45006e-06
-2.95719e-07
-2.3788e-06
-2.82839e-07
-2.31157e-06
-2.6866e-07
-2.24867e-06
-2.53366e-07
-2.19034e-06
-2.37148e-07
-2.13675e-06
-2.20198e-07
-2.08805e-06
-2.02706e-07
-2.04431e-06
-1.84861e-07
-2.00554e-06
-1.66845e-07
-1.97171e-06
-1.4883e-07
-1.94274e-06
-1.30982e-07
-1.91849e-06
-1.13453e-07
-1.89879e-06
-9.6386e-08
-1.88342e-06
-7.99117e-08
-1.87214e-06
-6.41498e-08
-1.86465e-06
-4.92097e-08
-1.86066e-06
-3.51909e-08
-1.85983e-06
-2.21841e-08
-1.86182e-06
-1.02705e-08
-1.86625e-06
4.79669e-10
-1.87277e-06
1.0002e-08
-1.88098e-06
1.823e-08
-1.89056e-06
2.51017e-08
-1.90115e-06
3.05872e-08
-1.91242e-06
3.46771e-08
-1.92406e-06
3.73743e-08
-1.93576e-06
3.86929e-08
-1.94723e-06
3.86606e-08
-1.95818e-06
3.73181e-08
-1.96835e-06
3.47181e-08
-1.97747e-06
3.09237e-08
-1.9853e-06
2.60062e-08
-1.9916e-06
2.00426e-08
-1.99613e-06
1.31126e-08
-1.99867e-06
5.29445e-09
-1.99901e-06
-3.33764e-09
-1.99698e-06
-1.27077e-08
-1.99242e-06
-2.27345e-08
-1.98519e-06
-3.33366e-08
-1.97516e-06