/*--------------------------------*- C++ -*----------------------------------*\
  =========                 |
  \\      /  F ield         | OpenFOAM: The Open Source CFD Toolbox
   \\    /   O peration     | Website:  https://openfoam.org
    \\  /    A nd           | Version:  9
     \\/     M anipulation  |
\*---------------------------------------------------------------------------*/
FoamFile
{
    format      ascii;
    class       volVectorField;
    location    "0.13";
    object      U;
}
// * * * * * * * * * * * * * * * * * * * * * * * * * * * * * * * * * * * * * //

dimensions      [0 1 -1 0 0 0 0];

internalField   nonuniform List<vector> 
12225
(
(0.937578 -0.295072 0)
(0.900094 -0.0762289 0)
(0.797292 0.00145566 0)
(0.690722 0.0131448 0)
(0.61249 0.0112186 0)
(0.553098 0.00872459 0)
(0.502079 0.00732798 0)
(0.456391 0.00653355 0)
(0.415284 0.00598336 0)
(0.377847 0.00563025 0)
(0.342979 0.00551377 0)
(0.309554 0.00560796 0)
(0.276903 0.0057301 0)
(0.245147 0.00545255 0)
(0.218512 0.00357599 0)
(0.204517 -0.00248693 0)
(0.256532 -0.0318311 0)
(0.22173 0.122482 0)
(1.02305 0.0836013 0)
(1.00106 0.0689296 0)
(0.964737 0.0366054 0)
(0.915902 0.0277816 0)
(0.864823 0.0247917 0)
(0.813706 0.0225004 0)
(0.761711 0.0210094 0)
(0.709501 0.0200608 0)
(0.658208 0.0193201 0)
(0.608584 0.0187743 0)
(0.560883 0.0185743 0)
(0.514768 0.0187901 0)
(0.469617 0.0192039 0)
(0.424894 0.0189361 0)
(0.382624 0.0154641 0)
(0.346539 0.000709274 0)
(0.328834 -0.0372754 0)
(0.254904 0.121233 0)
(0.998868 0.0194014 0)
(0.998502 0.0342214 0)
(0.99445 0.0349834 0)
(0.972904 0.035181 0)
(0.940878 0.0347212 0)
(0.902214 0.0341638 0)
(0.85786 0.034193 0)
(0.809481 0.0344486 0)
(0.758994 0.034502 0)
(0.708046 0.0343802 0)
(0.657796 0.03441 0)
(0.608641 0.0348832 0)
(0.560313 0.0357234 0)
(0.512133 0.0359103 0)
(0.46444 0.0322519 0)
(0.417186 0.0163298 0)
(0.364136 -0.0143303 0)
(0.269647 0.163084 0)
(0.998128 0.00544894 0)
(1.00076 0.0284439 0)
(1.00439 0.0369131 0)
(0.993913 0.0404585 0)
(0.972985 0.0427706 0)
(0.943878 0.0448412 0)
(0.907165 0.0471699 0)
(0.864372 0.0493219 0)
(0.817472 0.0507838 0)
(0.768403 0.0515806 0)
(0.718779 0.0521873 0)
(0.669486 0.0531445 0)
(0.620609 0.0546055 0)
(0.571526 0.055619 0)
(0.521586 0.0529047 0)
(0.468532 0.0393314 0)
(0.401961 0.0212911 0)
(0.300781 0.200648 0)
(0.999218 0.00600035 0)
(1.00228 0.0282286 0)
(1.00745 0.0382074 0)
(1.00236 0.0440239 0)
(0.988256 0.0491387 0)
(0.966038 0.0541292 0)
(0.935793 0.0592092 0)
(0.898644 0.0637936 0)
(0.856282 0.0672207 0)
(0.810564 0.0694442 0)
(0.76321 0.0710334 0)
(0.715362 0.0727704 0)
(0.667373 0.0750978 0)
(0.618758 0.0773214 0)
(0.568397 0.0765806 0)
(0.513124 0.0679249 0)
(0.44326 0.0631983 0)
(0.345141 0.227255 0)
(0.999585 0.00721814 0)
(1.00252 0.0273068 0)
(1.00769 0.0383366 0)
(1.00543 0.0463724 0)
(0.995587 0.0541718 0)
(0.978263 0.0621032 0)
(0.953242 0.0701245 0)
(0.921257 0.0774486 0)
(0.883625 0.0832263 0)
(0.841937 0.0872896 0)
(0.797802 0.0902432 0)
(0.752425 0.0930719 0)
(0.706335 0.0965217 0)
(0.659216 0.100276 0)
(0.609849 0.102201 0)
(0.554957 0.0995902 0)
(0.487207 0.106362 0)
(0.398171 0.249123 0)
(0.999632 0.0073286 0)
(1.00223 0.0257949 0)
(1.00687 0.0379307 0)
(1.00601 0.0479975 0)
(0.998798 0.0582719 0)
(0.984947 0.0690379 0)
(0.964079 0.0800125 0)
(0.936628 0.090195 0)
(0.903563 0.098544 0)
(0.866152 0.104746 0)
(0.825773 0.10939 0)
(0.783567 0.11361 0)
(0.740149 0.118432 0)
(0.695382 0.123962 0)
(0.648175 0.128902 0)
(0.595643 0.1324 0)
(0.533012 0.148303 0)
(0.455854 0.270057 0)
(0.999674 0.00710938 0)
(1.00182 0.0243639 0)
(1.00567 0.0374015 0)
(1.00538 0.0492221 0)
(0.999798 0.0617485 0)
(0.988433 0.0751809 0)
(0.970866 0.0890097 0)
(0.947332 0.102035 0)
(0.918517 0.113041 0)
(0.885379 0.121566 0)
(0.849027 0.12815 0)
(0.810461 0.134017 0)
(0.770319 0.140425 0)
(0.728621 0.147894 0)
(0.684527 0.15592 0)
(0.635809 0.164988 0)
(0.579834 0.187624 0)
(0.514927 0.290873 0)
(0.999751 0.00692818 0)
(1.00142 0.0232006 0)
(1.00441 0.0369096 0)
(1.00424 0.0502428 0)
(0.999653 0.064812 0)
(0.990104 0.0807126 0)
(0.975192 0.0972295 0)
(0.955034 0.112989 0)
(0.930105 0.126629 0)
(0.901102 0.137555 0)
(0.86887 0.146235 0)
(0.83424 0.153934 0)
(0.797826 0.162083 0)
(0.759778 0.17156 0)
(0.719549 0.182538 0)
(0.675621 0.196338 0)
(0.626908 0.223588 0)
(0.573374 0.311412 0)
(0.999832 0.00680453 0)
(1.00107 0.0222931 0)
(1.00324 0.0365254 0)
(1.00296 0.0511833 0)
(0.999011 0.0676016 0)
(0.990844 0.0857584 0)
(0.978118 0.104757 0)
(0.960894 0.123077 0)
(0.939502 0.139242 0)
(0.914429 0.152548 0)
(0.886293 0.163387 0)
(0.855757 0.173019 0)
(0.823385 0.182983 0)
(0.789426 0.194443 0)
(0.753609 0.20809 0)
(0.715055 0.225684 0)
(0.673677 0.255847 0)
(0.630276 0.331229 0)
(0.999898 0.00669991 0)
(1.00079 0.0216035 0)
(1.00225 0.0362761 0)
(1.0018 0.0521067 0)
(0.998297 0.0701919 0)
(0.991251 0.0903869 0)
(0.980394 0.111634 0)
(0.965768 0.132295 0)
(0.947605 0.150809 0)
(0.926238 0.166391 0)
(0.902102 0.179355 0)
(0.875711 0.190925 0)
(0.847568 0.202691 0)
(0.817988 0.216017 0)
(0.78694 0.231948 0)
(0.754043 0.252406 0)
(0.71979 0.284182 0)
(0.685307 0.349691 0)
(0.999943 0.00662587 0)
(1.00059 0.0211553 0)
(1.00157 0.0361865 0)
(1.00099 0.0529768 0)
(0.997844 0.0724376 0)
(0.991709 0.0943069 0)
(0.982386 0.117398 0)
(0.969921 0.139986 0)
(0.95449 0.160457 0)
(0.936325 0.177976 0)
(0.915736 0.19279 0)
(0.893127 0.206068 0)
(0.868939 0.219402 0)
(0.843527 0.234264 0)
(0.817027 0.251896 0)
(0.789401 0.274203 0)
(0.761431 0.30657 0)
(0.734386 0.364766 0)
(0.999978 0.00654199 0)
(1.00046 0.020814 0)
(1.0011 0.0361691 0)
(1.00047 0.0538157 0)
(0.997704 0.0745069 0)
(0.992445 0.0978629 0)
(0.984559 0.122581 0)
(0.974103 0.146866 0)
(0.961216 0.169074 0)
(0.946063 0.188332 0)
(0.928862 0.20483 0)
(0.909926 0.219672 0)
(0.889643 0.234418 0)
(0.868382 0.250587 0)
(0.846398 0.269521 0)
(0.823891 0.293013 0)
(0.801757 0.32527 0)
(0.781316 0.377306 0)
(1.00001 0.00646022 0)
(1.0004 0.0205347 0)
(1.00084 0.0362229 0)
(1.0003 0.0547238 0)
(0.998066 0.0766424 0)
(0.99385 0.101468 0)
(0.987578 0.12778 0)
(0.979321 0.15372 0)
(0.969193 0.177625 0)
(0.957309 0.198604 0)
(0.943815 0.216787 0)
(0.928946 0.233195 0)
(0.913032 0.249317 0)
(0.896438 0.266671 0)
(0.879497 0.286622 0)
(0.862558 0.310779 0)
(0.846492 0.342258 0)
(0.832481 0.38833 0)
(1.00003 0.0063528 0)
(1.00042 0.0202548 0)
(1.00088 0.0362457 0)
(1.00068 0.055542 0)
(0.999247 0.0786102 0)
(0.996358 0.104798 0)
(0.991983 0.132566 0)
(0.986199 0.16 0)
(0.9791 0.185438 0)
(0.97076 0.20798 0)
(0.961272 0.227705 0)
(0.950807 0.24553 0)
(0.939639 0.262845 0)
(0.928108 0.281103 0)
(0.916574 0.301627 0)
(0.905443 0.325802 0)
(0.895482 0.355821 0)
(0.887604 0.396193 0)
(1.00005 0.00618226 0)
(1.00056 0.0198456 0)
(1.00132 0.0360111 0)
(1.0018 0.055931 0)
(1.00157 0.0799457 0)
(1.00043 0.107256 0)
(0.998377 0.136204 0)
(0.995464 0.164835 0)
(0.991752 0.191497 0)
(0.987279 0.215293 0)
(0.982095 0.236251 0)
(0.976319 0.255177 0)
(0.970167 0.273329 0)
(0.963937 0.292051 0)
(0.957972 0.312567 0)
(0.952663 0.336035 0)
(0.94864 0.36393 0)
(0.946498 0.39883 0)
(1.00007 0.00587421 0)
(1.00084 0.0190489 0)
(1.00221 0.0350708 0)
(1.0038 0.0552324 0)
(1.00527 0.0797714 0)
(1.00645 0.107751 0)
(1.00729 0.137413 0)
(1.0078 0.166769 0)
(1.00796 0.194181 0)
(1.00778 0.218762 0)
(1.00724 0.240483 0)
(1.00642 0.260033 0)
(1.00548 0.278516 0)
(1.00465 0.297137 0)
(1.00422 0.316994 0)
(1.00453 0.339036 0)
(1.00606 0.364236 0)
(1.00909 0.39393 0)
(1.00011 0.00530161 0)
(1.00129 0.017434 0)
(1.00357 0.0326718 0)
(1.00673 0.0523427 0)
(1.01046 0.07662 0)
(1.01459 0.104475 0)
(1.019 0.134086 0)
(1.0236 0.163452 0)
(1.02828 0.190953 0)
(1.03294 0.215692 0)
(1.03752 0.237576 0)
(1.04201 0.25716 0)
(1.0465 0.27538 0)
(1.05117 0.293282 0)
(1.05623 0.31182 0)
(1.06194 0.331776 0)
(1.06864 0.353798 0)
(1.0764 0.37852 0)
(1.00016 0.00426936 0)
(1.00189 0.0143466 0)
(1.0054 0.0276558 0)
(1.01054 0.0455537 0)
(1.01706 0.0682057 0)
(1.02474 0.0945802 0)
(1.03338 0.122877 0)
(1.04276 0.151132 0)
(1.05264 0.177749 0)
(1.0628 0.201811 0)
(1.07308 0.223134 0)
(1.08338 0.242123 0)
(1.09372 0.259538 0)
(1.10414 0.276255 0)
(1.11479 0.293093 0)
(1.12581 0.310714 0)
(1.13739 0.329609 0)
(1.14944 0.350116 0)
(1.0002 0.00293642 0)
(1.00245 0.0101691 0)
(1.0071 0.0205678 0)
(1.01404 0.0355413 0)
(1.02299 0.0553095 0)
(1.03371 0.0789318 0)
(1.04593 0.104712 0)
(1.05936 0.130766 0)
(1.07368 0.15553 0)
(1.08858 0.178064 0)
(1.10384 0.198097 0)
(1.1193 0.215908 0)
(1.13488 0.232113 0)
(1.15057 0.247456 0)
(1.16642 0.262655 0)
(1.1825 0.278305 0)
(1.19891 0.294854 0)
(1.21556 0.3126 0)
(1.00021 0.0016464 0)
(1.00283 0.00607609 0)
(1.00835 0.0135933 0)
(1.01659 0.0256625 0)
(1.0272 0.0425345 0)
(1.03991 0.06335 0)
(1.05447 0.0865076 0)
(1.07054 0.110189 0)
(1.08781 0.132862 0)
(1.10595 0.153573 0)
(1.12471 0.172002 0)
(1.14389 0.188347 0)
(1.16335 0.203128 0)
(1.18304 0.216995 0)
(1.20295 0.230588 0)
(1.22309 0.244446 0)
(1.24356 0.258982 0)
(1.26425 0.274493 0)
(1.0002 0.00040874 0)
(1.00305 0.00198373 0)
(1.00928 0.00661781 0)
(1.01849 0.0158467 0)
(1.03021 0.0298875 0)
(1.04421 0.0479356 0)
(1.06026 0.0684576 0)
(1.07806 0.0896785 0)
(1.09732 0.110091 0)
(1.11775 0.128747 0)
(1.13909 0.145305 0)
(1.16109 0.159916 0)
(1.18359 0.173035 0)
(1.20646 0.185243 0)
(1.22966 0.197109 0)
(1.25315 0.209113 0)
(1.27697 0.221623 0)
(1.30106 0.234914 0)
(1.00012 -0.000683395 0)
(1.00303 -0.00195456 0)
(1.00983 -3.47834e-05 0)
(1.01969 0.00662118 0)
(1.03199 0.0180829 0)
(1.04661 0.0335753 0)
(1.06338 0.0515987 0)
(1.08209 0.0703953 0)
(1.10253 0.0884886 0)
(1.12443 0.104963 0)
(1.14753 0.119488 0)
(1.17156 0.132198 0)
(1.1963 0.143513 0)
(1.22157 0.153961 0)
(1.24728 0.164052 0)
(1.27334 0.17421 0)
(1.29977 0.184753 0)
(1.32652 0.195922 0)
(0.999952 -0.00156452 0)
(1.00271 -0.00572759 0)
(1.01 -0.00619638 0)
(1.0202 -0.00168451 0)
(1.03254 0.00756875 0)
(1.0471 0.0208213 0)
(1.06384 0.0365665 0)
(1.08269 0.0530457 0)
(1.10355 0.0688343 0)
(1.12621 0.0830846 0)
(1.15037 0.0955109 0)
(1.17574 0.10626 0)
(1.20202 0.115733 0)
(1.22898 0.124417 0)
(1.25647 0.13277 0)
(1.28438 0.141157 0)
(1.31268 0.149844 0)
(1.34135 0.159027 0)
(0.999664 -0.00195765 0)
(1.00201 -0.00930419 0)
(1.00986 -0.011782 0)
(1.02004 -0.00887732 0)
(1.03175 -0.00137019 0)
(1.04544 0.0100229 0)
(1.06129 0.0237401 0)
(1.07946 0.03802 0)
(1.10001 0.0515372 0)
(1.12278 0.063561 0)
(1.14741 0.073884 0)
(1.17351 0.0826847 0)
(1.20073 0.090355 0)
(1.22876 0.097344 0)
(1.25739 0.104054 0)
(1.2865 0.110793 0)
(1.31604 0.117771 0)
(1.34597 0.125135 0)
(0.998889 -0.000894737 0)
(1.00062 -0.012032 0)
(1.00938 -0.0164407 0)
(1.01898 -0.014713 0)
(1.02901 -0.00845472 0)
(1.04066 0.00147427 0)
(1.05452 0.0133843 0)
(1.07109 0.0255318 0)
(1.09061 0.0367752 0)
(1.11289 0.0465673 0)
(1.13747 0.0548077 0)
(1.16382 0.061716 0)
(1.19146 0.0676722 0)
(1.22004 0.0730788 0)
(1.24929 0.0782775 0)
(1.27906 0.083514 0)
(1.30929 0.088945 0)
(1.33996 0.0946688 0)
(0.996764 0.00170513 0)
(0.997874 -0.0131084 0)
(1.00789 -0.0194271 0)
(1.01583 -0.0187441 0)
(1.02239 -0.0133072 0)
(1.03023 -0.00448077 0)
(1.04063 0.00571675 0)
(1.05457 0.0156728 0)
(1.07238 0.0245661 0)
(1.0937 0.032097 0)
(1.11781 0.0382869 0)
(1.14399 0.0433859 0)
(1.17164 0.047745 0)
(1.20032 0.0517046 0)
(1.22973 0.0555349 0)
(1.25973 0.0594162 0)
(1.29022 0.0634543 0)
(1.32122 0.0677073 0)
(0.994512 -0.00546594 0)
(0.994915 -0.0177322 0)
(1.0038 -0.0215895 0)
(1.00672 -0.0207697 0)
(1.00648 -0.0156574 0)
(1.00778 -0.00767664 0)
(1.01285 0.000784953 0)
(1.02313 0.00836386 0)
(1.0387 0.0147973 0)
(1.05868 0.0200592 0)
(1.08196 0.0242721 0)
(1.10758 0.0276848 0)
(1.1348 0.0305903 0)
(1.16312 0.0332487 0)
(1.19224 0.0358506 0)
(1.22201 0.0385098 0)
(1.25236 0.0412832 0)
(1.28334 0.0441959 0)
(1.01276 -0.0704329 0)
(1.0059 -0.0636258 0)
(0.99534 -0.0341397 0)
(0.979167 -0.0222719 0)
(0.963885 -0.0155039 0)
(0.954256 -0.00839719 0)
(0.95185 -0.0020675 0)
(0.957654 0.00295481 0)
(0.970589 0.00697978 0)
(0.988778 0.0101533 0)
(1.01061 0.0126253 0)
(1.03491 0.0145993 0)
(1.06089 0.0162869 0)
(1.08803 0.0178595 0)
(1.11607 0.0194285 0)
(1.14488 0.0210474 0)
(1.17441 0.0227278 0)
(1.20473 0.0244675 0)
(0.969455 0.245174 0)
(0.972874 0.0769502 0)
(0.913777 0.00736599 0)
(0.842891 -0.0064869 0)
(0.795747 -0.00568688 0)
(0.772202 -0.00216299 0)
(0.76435 0.000404912 0)
(0.765639 0.00204535 0)
(0.773888 0.00325202 0)
(0.787326 0.00417751 0)
(0.80432 0.00488936 0)
(0.823717 0.00545808 0)
(0.844826 0.00595969 0)
(0.867284 0.00645429 0)
(0.890924 0.0069748 0)
(0.915703 0.00753153 0)
(0.941541 0.00810634 0)
(0.968456 0.00873202 0)
(0.0725425 -0.125928 -1.49477e-20)
(0.20881 -0.233548 1.23576e-20)
(0.391276 -0.272203 0)
(0.570044 -0.266442 0)
(0.723991 -0.237163 0)
(0.8462 -0.196487 -1.06738e-20)
(0.934545 -0.150204 0)
(0.988346 -0.100387 0)
(1.00943 -0.0470263 0)
(0.988309 0.0065019 0)
(0.932026 0.0540231 1.11776e-20)
(0.850501 0.0895598 0)
(0.754895 0.109521 0)
(0.656441 0.113507 0)
(0.564141 0.104309 0)
(0.482326 0.0872903 1.26153e-20)
(0.409822 0.0690141 0)
(0.341491 0.0556409 0)
(0.270943 0.0520513 0)
(0.192584 0.0598369 0)
(0.102391 0.0751327 0)
(-0.00105445 0.0915012 0)
(-0.117189 0.106155 0)
(-0.243977 0.118972 1.57954e-20)
(-0.379902 0.129816 -1.53595e-20)
(-0.523065 0.138524 1.50484e-20)
(-0.671519 0.145035 1.48534e-20)
(-0.823417 0.149417 0)
(-0.977084 0.151842 0)
(-1.13105 0.152551 -1.48259e-20)
(-1.28409 0.151818 -1.49535e-20)
(-1.4352 0.149923 0)
(-1.58358 0.14713 0)
(-1.72864 0.143666 -1.55703e-20)
(-1.86995 0.139721 0)
(-2.0072 0.135444 0)
(-2.14017 0.130941 1.63529e-20)
(-2.26872 0.126285 0)
(-2.39275 0.121519 1.68874e-20)
(-2.51218 0.11666 3.42939e-20)
(-2.62693 0.111712 0)
(-2.73692 0.106661 0)
(-2.84206 0.101491 0)
(-2.94221 0.0961765 0)
(-3.03725 0.090694 0)
(-3.127 0.0850194 3.6889e-20)
(-3.21127 0.0791319 3.72023e-20)
(-3.28984 0.0730152 3.7474e-20)
(-3.36249 0.0666593 0)
(-3.42896 0.0600624 -3.78831e-20)
(-3.48899 0.0532333 0)
(-3.54231 0.0461964 3.80992e-20)
(-3.58865 0.0389968 3.81303e-20)
(-3.62775 0.0317097 0)
(-3.65937 0.0244389 0)
(-3.68335 0.017339 0)
(-3.69946 0.0106549 3.77148e-20)
(-3.70759 0.00457528 0)
(-3.70816 -0.000804375 0)
(-3.70251 -0.0055583 0)
(-3.69063 -0.00998757 0)
(-3.67275 -0.0141998 0)
(-3.64905 -0.0182224 0)
(-3.61973 -0.0220529 0)
(-3.58497 -0.0256761 0)
(-3.54501 -0.0290719 -3.26731e-20)
(-3.50011 -0.0322188 0)
(-3.45059 -0.0350959 0)
(-3.39677 -0.0376842 2.98898e-20)
(-3.33902 -0.0399671 2.88756e-20)
(-3.27775 -0.0419311 0)
(-3.21338 -0.0435665 -2.67523e-20)
(-3.14636 -0.0448676 2.5656e-20)
(-3.07715 -0.0458326 0)
(-3.00623 -0.0464645 -2.3428e-20)
(-2.93408 -0.04677 0)
(-2.86116 -0.0467604 0)
(-2.78796 -0.0464505 2.00999e-20)
(-2.71493 -0.0458585 0)
(-2.64251 -0.0450054 -1.79689e-20)
(-2.57112 -0.0439141 0)
(-2.50115 -0.0426089 1.59659e-20)
(-2.43298 -0.0411147 1.5026e-20)
(-2.36693 -0.0394558 1.41334e-20)
(-2.30331 -0.0376562 2.65844e-20)
(-2.24238 -0.0357382 -2.50117e-20)
(-2.1844 -0.033723 0)
(-2.12956 -0.0316301 0)
(-2.07805 -0.029478 0)
(-2.03001 -0.0272837 -1.99145e-20)
(-1.98555 -0.0250635 -1.89512e-20)
(-1.94479 -0.0228325 1.81126e-20)
(-1.90777 -0.0206054 0)
(-1.87454 -0.0183965 -1.68012e-20)
(-1.8451 -0.0162203 -1.63213e-20)
(-1.81944 -0.0140922 -1.59524e-20)
(-1.79751 -0.0120279 0)
(-1.77923 -0.0100435 0)
(-1.76447 -0.00815547 0)
(-1.75308 -0.00637792 -1.54676e-20)
(-1.74488 -0.00471304 0)
(-1.73966 -0.00314904 0)
(-1.7372 -0.00166866 1.59422e-20)
(-1.73733 -0.000202221 0)
(-1.73968 0.0013843 0)
(-1.74445 0.00285922 1.68688e-20)
(-1.75138 0.00410588 0)
(-1.76012 0.00508373 0)
(-1.77028 0.00577487 -1.80084e-20)
(-1.78141 0.006173 -1.84009e-20)
(-1.79306 0.00628023 0)
(-1.80476 0.00610656 1.91639e-20)
(-1.81606 0.0056691 0)
(-1.8265 0.00499186 -1.98573e-20)
(-1.83565 0.00411089 0)
(-1.8431 0.00307423 -2.04403e-20)
(-1.84845 0.00194868 -2.06794e-20)
(-1.85137 0.000817251 0)
(-1.85199 -0.000280381 0)
(-1.8503 -0.00138234 0)
(-1.84616 -0.00252333 0)
(-1.83943 -0.00370698 0)
(-1.82999 -0.00492825 0)
(-1.81776 -0.00618071 0)
(-1.80262 -0.0074581 -2.06741e-20)
(-1.78452 -0.00875479 2.04052e-20)
(-1.76338 -0.0100659 0)
(-1.73916 -0.0113872 0)
(-1.71181 -0.0127154 0)
(-1.68131 -0.0140478 0)
(-1.64763 -0.0153824 3.62537e-20)
(-1.61077 -0.0167179 0)
(-1.5707 -0.0180534 -3.35924e-20)
(-1.52743 -0.0193885 3.20951e-20)
(-1.48096 -0.020723 0)
(-1.43128 -0.0220566 0)
(-1.3784 -0.0233889 0)
(-1.32235 -0.0247195 -2.51152e-20)
(-1.26312 -0.0260478 -2.31548e-20)
(-1.20074 -0.0273743 0)
(-1.13522 -0.0286998 -1.90306e-20)
(-1.06658 -0.0300208 -1.68852e-20)
(-0.99484 -0.0313299 1.4698e-20)
(-0.920139 -0.0326476 0)
(-0.84252 -0.0343013 0)
(-0.761241 -0.0372821 8.01949e-21)
(-0.676237 -0.0414656 0)
(-0.589265 -0.0438582 0)
(-0.500288 -0.044443 0)
(-0.411608 -0.0402473 0)
(-0.317488 -0.039572 2.5911e-21)
(-0.222023 -0.0454219 4.26509e-21)
(-0.126292 -0.042228 0)
(-0.0269262 -0.0421236 7.69209e-21)
(0.0753798 -0.0407369 0)
(0.175644 -0.0415315 0)
(0.275747 -0.0458642 9.5769e-21)
(0.38072 -0.0394249 0)
(0.482612 -0.0382713 9.87195e-21)
(0.583375 -0.0312508 0)
(0.680302 -0.0287756 0)
(0.774641 -0.040296 8.68813e-21)
(0.869948 -0.028885 0)
(0.957474 -0.0304546 7.28028e-21)
(1.04193 -0.0296859 0)
(1.12213 -0.0235744 0)
(1.19422 -0.0109332 0)
(1.25575 -0.00405922 -3.53148e-21)
(1.30835 -0.0149948 0)
(1.35451 -0.0158077 1.86725e-21)
(1.39136 -0.0141714 0)
(1.4172 -0.00954237 0)
(1.4264 -0.00292495 0)
(1.41587 0.00365053 0)
(1.38677 0.0104076 0)
(1.33983 0.0170547 0)
(1.27604 0.0230744 0)
(1.19541 0.0281445 -1.78589e-22)
(1.10414 0.0330362 0)
(0.975713 0.0361139 0)
(0.126523 -0.477483 3.77525e-20)
(0.258631 -0.591582 -2.8137e-20)
(0.385344 -0.555017 0)
(0.487513 -0.474768 1.67362e-20)
(0.56119 -0.379524 0)
(0.610537 -0.279561 7.89198e-21)
(0.638983 -0.178893 -1.73093e-20)
(0.647914 -0.0789984 -1.78576e-20)
(0.637802 0.018762 0)
(0.617283 0.108966 -1.85004e-20)
(0.580999 0.184887 -9.09038e-21)
(0.52621 0.239333 0)
(0.452785 0.267643 0)
(0.363172 0.271198 0)
(0.260508 0.258996 0)
(0.146391 0.244486 -9.56084e-21)
(0.0209716 0.239147 0)
(-0.116299 0.248046 1.81903e-20)
(-0.265069 0.26951 0)
(-0.4237 0.298309 0)
(-0.590035 0.328548 -1.63677e-20)
(-0.761303 0.355774 0)
(-0.934718 0.377893 1.58624e-20)
(-1.10803 0.394313 -8.04471e-21)
(-1.27936 0.404979 8.03476e-21)
(-1.44708 0.410181 -8.08745e-21)
(-1.60984 0.410482 -8.1981e-21)
(-1.76666 0.406603 0)
(-1.9169 0.39932 0)
(-2.06019 0.389396 8.81045e-21)
(-2.19642 0.377526 -9.19513e-21)
(-2.32566 0.364313 0)
(-2.44808 0.350255 0)
(-2.56394 0.33574 1.00116e-20)
(-2.67352 0.321056 0)
(-2.77712 0.306406 0)
(-2.87501 0.291916 -1.09926e-20)
(-2.96745 0.277656 0)
(-3.05463 0.263647 1.1718e-20)
(-3.13673 0.249881 -2.3848e-20)
(-3.21389 0.236327 0)
(-3.2862 0.222938 0)
(-3.35373 0.209665 -5.1129e-20)
(-3.41652 0.196452 -5.20839e-20)
(-3.47459 0.183249 -5.29633e-20)
(-3.52795 0.17001 2.69845e-20)
(-3.57657 0.156694 -2.71231e-20)
(-3.62046 0.14327 -8.25135e-20)
(-3.65959 0.129713 5.56144e-20)
(-3.69395 0.116009 2.78665e-20)
(-3.72355 0.102152 0)
(-3.7484 0.088148 -2.80972e-20)
(-3.76854 0.0740135 2.85271e-20)
(-3.78404 0.0597864 0)
(-3.79501 0.0455339 0)
(-3.80157 0.0313748 0)
(-3.80391 0.0175054 -2.76981e-20)
(-3.80212 0.00413986 0)
(-3.79592 -0.00860943 5.46691e-20)
(-3.78413 -0.020751 0)
(-3.76671 -0.0323887 5.30068e-20)
(-3.74362 -0.0435608 0)
(-3.71492 -0.0542532 -5.0948e-20)
(-3.68073 -0.0644256 0)
(-3.64124 -0.0740252 4.85317e-20)
(-3.59669 -0.0829947 -2.39696e-20)
(-3.54736 -0.0912768 0)
(-3.49354 -0.0988176 -4.43612e-20)
(-3.4356 -0.105568 -2.10398e-20)
(-3.37392 -0.111486 -2.02642e-20)
(-3.30892 -0.116538 0)
(-3.24104 -0.120698 -1.94638e-20)
(-3.17076 -0.123952 -1.78742e-20)
(-3.09856 -0.126294 0)
(-3.02495 -0.12773 1.62754e-20)
(-2.95043 -0.128276 -3.17104e-20)
(-2.87551 -0.127957 0)
(-2.8007 -0.12681 -1.39584e-20)
(-2.7265 -0.124878 0)
(-2.65338 -0.122213 3.81572e-20)
(-2.58179 -0.118874 0)
(-2.51218 -0.114924 -3.40804e-20)
(-2.44494 -0.110431 -1.05642e-20)
(-2.38042 -0.105463 1.04302e-20)
(-2.31895 -0.10009 1.96805e-20)
(-2.26082 -0.0943824 -1.85779e-20)
(-2.20624 -0.0884079 0)
(-2.15542 -0.0822321 0)
(-2.1085 -0.0759175 0)
(-2.06557 -0.0695232 4.4305e-20)
(-2.02669 -0.0631043 1.40574e-20)
(-1.99188 -0.0567118 -1.35496e-20)
(-1.96111 -0.0503925 0)
(-1.93432 -0.0441895 -1.28517e-20)
(-1.91143 -0.0381429 1.25182e-20)
(-1.89233 -0.0322906 1.23306e-20)
(-1.87689 -0.0266693 0)
(-1.86495 -0.021315 0)
(-1.85635 -0.0162628 0)
(-1.85091 -0.0115488 1.22675e-20)
(-1.84845 -0.00720595 0)
(-1.84875 -0.00325906 -2.49945e-20)
(-1.8516 0.000286673 -3.82454e-20)
(-1.85668 0.00348591 2.59385e-20)
(-1.86382 0.00641185 0)
(-1.87225 0.00895258 1.34768e-20)
(-1.88153 0.0110111 0)
(-1.8913 0.0125438 2.84639e-20)
(-1.90124 0.0135351 -1.45261e-20)
(-1.91106 0.0139861 -1.48875e-20)
(-1.92047 0.01391 0)
(-1.92922 0.0133291 -4.68509e-20)
(-1.93708 0.0122735 3.18571e-20)
(-1.94386 0.0107796 1.62206e-20)
(-1.94939 0.00889399 0)
(-1.95356 0.0066764 1.671e-20)
(-1.95628 0.00420712 5.07982e-20)
(-1.95746 0.00158327 0)
(-1.95668 -0.00114669 3.44268e-20)
(-1.95359 -0.00398343 3.45612e-20)
(-1.948 -0.00692929 3.46026e-20)
(-1.93977 -0.00997185 0)
(-1.92878 -0.0130918 0)
(-1.91493 -0.016269 0)
(-1.89812 -0.0194843 -1.7018e-20)
(-1.87828 -0.0227204 -1.65138e-20)
(-1.85535 -0.025962 0)
(-1.82929 -0.0291957 -3.20769e-20)
(-1.80004 -0.0324101 -3.1307e-20)
(-1.7676 -0.0355957 0)
(-1.73193 -0.0387446 -2.90718e-20)
(-1.69304 -0.0418504 -5.68267e-20)
(-1.6509 -0.0449081 2.68187e-20)
(-1.60554 -0.0479139 2.64983e-20)
(-1.55694 -0.0508644 0)
(-1.50513 -0.053757 0)
(-1.45012 -0.0565891 0)
(-1.39193 -0.0593591 1.97842e-20)
(-1.33057 -0.0620656 -1.93399e-20)
(-1.26608 -0.0647084 -3.4267e-20)
(-1.19848 -0.0672873 1.48436e-20)
(-1.1278 -0.0697981 -1.44094e-20)
(-1.05406 -0.0722398 -1.13797e-20)
(-0.977248 -0.0746234 0)
(-0.897443 -0.0768929 0)
(-0.814844 -0.0788497 7.60348e-21)
(-0.729611 -0.0803137 0)
(-0.641638 -0.0811145 0)
(-0.550946 -0.0818295 -3.81029e-21)
(-0.457998 -0.08348 0)
(-0.363144 -0.0868711 4.49456e-22)
(-0.265115 -0.0860877 -3.28608e-21)
(-0.16688 -0.0873451 0)
(-0.0666805 -0.0896925 4.34062e-21)
(0.0356677 -0.0898877 0)
(0.139382 -0.0874841 0)
(0.242053 -0.0865156 -7.59833e-21)
(0.345081 -0.0881474 1.49165e-20)
(0.448849 -0.0854379 -7.90288e-21)
(0.55123 -0.0846775 0)
(0.653502 -0.0803223 0)
(0.751301 -0.0759282 5.92494e-21)
(0.847031 -0.073998 0)
(0.940007 -0.0684794 5.10509e-21)
(1.02761 -0.0648477 0)
(1.11003 -0.0596854 0)
(1.18659 -0.0555441 0)
(1.25619 -0.0481017 2.95058e-21)
(1.31671 -0.0391482 0)
(1.36795 -0.0306999 -1.56517e-21)
(1.41022 -0.0221809 0)
(1.44269 -0.0123508 0)
(1.46636 -0.00118546 -2.35724e-22)
(1.48045 0.0104238 7.40263e-22)
(1.48154 0.0222074 0)
(1.46694 0.0338158 0)
(1.43515 0.0449332 0)
(1.3841 0.0552139 3.74581e-22)
(1.31741 0.0662283 0)
(1.22323 0.0758852 -4.21429e-21)
(0.0782065 -0.819176 7.39716e-22)
(0.161846 -0.832825 3.56479e-20)
(0.217786 -0.710149 0)
(0.252716 -0.574316 -3.07291e-20)
(0.269433 -0.43889 0)
(0.270902 -0.306468 0)
(0.258905 -0.178072 -1.205e-22)
(0.234334 -0.0543198 1.63692e-20)
(0.198021 0.0643939 1.66122e-20)
(0.151443 0.176872 1.69422e-20)
(0.0953727 0.277757 0)
(0.0295368 0.359296 0)
(-0.0478772 0.416331 -1.61804e-20)
(-0.139491 0.451115 -3.03989e-20)
(-0.247517 0.472607 2.85182e-20)
(-0.372842 0.491334 0)
(-0.514016 0.514454 2.55566e-20)
(-0.667391 0.543723 -1.22346e-20)
(-0.828008 0.576567 0)
(-0.990899 0.608734 2.33353e-20)
(-1.15206 0.636397 1.14092e-20)
(-1.30873 0.657174 -2.30651e-20)
(-1.45916 0.670106 -1.13355e-20)
(-1.6024 0.675179 0)
(-1.73803 0.672977 2.40049e-20)
(-1.86609 0.664445 2.45903e-20)
(-1.98693 0.650711 0)
(-2.10109 0.632936 2.60517e-20)
(-2.20921 0.612216 0)
(-2.31194 0.589518 2.77863e-20)
(-2.40989 0.565648 1.39503e-20)
(-2.50361 0.541243 0)
(-2.59356 0.516778 0)
(-2.6801 0.492586 0)
(-2.76351 0.468875 0)
(-2.844 0.445758 0)
(-2.9217 0.42327 0)
(-2.99668 0.401394 3.54946e-20)
(-3.06896 0.380072 -5.44012e-20)
(-3.13852 0.359227 0)
(-3.20531 0.338765 0)
(-3.26926 0.318591 0)
(-3.33027 0.298613 -3.26417e-22)
(-3.3882 0.278746 3.99885e-20)
(-3.44294 0.258916 8.1541e-20)
(-3.49432 0.239062 -8.26513e-20)
(-3.54219 0.219137 -4.19794e-20)
(-3.58639 0.199111 4.20508e-20)
(-3.62674 0.17897 3.62647e-22)
(-3.66308 0.158717 4.30131e-20)
(-3.69522 0.138373 0)
(-3.723 0.117971 4.33138e-20)
(-3.74625 0.097563 4.40759e-22)
(-3.76481 0.0772062 0)
(-3.77849 0.056962 0)
(-3.78711 0.0368842 -4.29343e-20)
(-3.79044 0.0170011 0)
(-3.7883 -0.00268344 0)
(-3.7805 -0.0221358 4.21595e-20)
(-3.76695 -0.0412593 8.18425e-20)
(-3.74766 -0.0598962 -3.95697e-20)
(-3.72267 -0.0779127 0)
(-3.69206 -0.0951949 3.78719e-20)
(-3.65597 -0.111634 0)
(-3.61456 -0.127125 3.72534e-20)
(-3.56808 -0.141564 3.48658e-20)
(-3.5168 -0.154854 -6.88724e-20)
(-3.46103 -0.166904 -3.39646e-20)
(-3.40112 -0.177636 0)
(-3.33748 -0.186981 6.18467e-20)
(-3.27052 -0.194885 0)
(-3.20071 -0.201308 8.47915e-20)
(-3.12852 -0.206227 5.44782e-20)
(-3.05446 -0.209634 5.20129e-20)
(-2.97903 -0.211541 -4.9566e-20)
(-2.90278 -0.211974 7.01746e-20)
(-2.82621 -0.210976 0)
(-2.74986 -0.208607 0)
(-2.67424 -0.20494 -4.02134e-20)
(-2.59985 -0.200062 -5.66226e-20)
(-2.52717 -0.194069 0)
(-2.45664 -0.187069 1.66075e-20)
(-2.38868 -0.179176 0)
(-2.32367 -0.170506 -4.5125e-20)
(-2.26196 -0.161181 5.37866e-22)
(-2.20384 -0.151322 -4.67844e-22)
(-2.14955 -0.141048 2.56427e-20)
(-2.09931 -0.130474 0)
(-2.05325 -0.119713 -2.31775e-20)
(-2.0115 -0.108868 1.98347e-22)
(-1.9741 -0.098038 0)
(-1.94106 -0.0873133 0)
(-1.91234 -0.076776 0)
(-1.88788 -0.0665001 1.93652e-20)
(-1.86754 -0.0565525 0)
(-1.85119 -0.0469932 0)
(-1.83863 -0.0378768 0)
(-1.82965 -0.0292529 0)
(-1.82403 -0.0211666 0)
(-1.8215 -0.013659 1.88867e-20)
(-1.82182 -0.00676614 0)
(-1.82467 -0.000520485 1.97614e-20)
(-1.82974 0.00504851 2.01896e-20)
(-1.83667 0.00989982 -2.06571e-20)
(-1.8451 0.0139435 0)
(-1.8547 0.0171858 -2.17348e-20)
(-1.86513 0.0196347 0)
(-1.87608 0.0212917 -2.29174e-20)
(-1.88727 0.0221678 2.35211e-20)
(-1.89841 0.0222865 7.21977e-20)
(-1.90924 0.0216836 0)
(-1.9195 0.020405 7.57398e-20)
(-1.92897 0.0185045 2.57849e-20)
(-1.93742 0.0160421 0)
(-1.94463 0.0130809 5.3575e-20)
(-1.95037 0.0096832 5.44225e-20)
(-1.95444 0.00590449 -8.26439e-20)
(-1.95659 0.00178602 0)
(-1.95658 -0.00263328 -2.79063e-20)
(-1.95424 -0.00730382 -2.80047e-20)
(-1.9494 -0.0121767 -8.44465e-20)
(-1.94192 -0.0172107 0)
(-1.93167 -0.0223684 0)
(-1.91856 -0.0276149 0)
(-1.90249 -0.0329182 -2.78338e-20)
(-1.88339 -0.0382492 0)
(-1.86119 -0.043582 0)
(-1.83585 -0.048894 2.58598e-20)
(-1.80734 -0.0541656 2.52178e-20)
(-1.77561 -0.0593799 0)
(-1.74067 -0.0645231 0)
(-1.70248 -0.0695833 4.56439e-20)
(-1.66106 -0.074551 0)
(-1.61641 -0.0794184 -4.17235e-20)
(-1.56853 -0.0841789 -4.04729e-20)
(-1.51744 -0.0888269 0)
(-1.46316 -0.0933577 0)
(-1.40571 -0.0977673 3.34282e-20)
(-1.34512 -0.102053 -1.02691e-21)
(-1.28143 -0.106212 -1.05568e-21)
(-1.21465 -0.110244 0)
(-1.14485 -0.114147 4.47104e-20)
(-1.07204 -0.117921 0)
(-0.996272 -0.12158 0)
(-0.91762 -0.125142 0)
(-0.836307 -0.128565 -1.07857e-20)
(-0.752563 -0.131611 0)
(-0.666261 -0.134057 1.34644e-20)
(-0.577233 -0.136058 2.97099e-21)
(-0.48552 -0.138019 0)
(-0.391789 -0.140574 -1.88841e-21)
(-0.296121 -0.141973 0)
(-0.198773 -0.143124 0)
(-0.0998887 -0.144518 -2.09285e-20)
(9.80614e-05 -0.144839 1.61611e-20)
(0.101504 -0.143991 0)
(0.203145 -0.143357 2.01684e-20)
(0.304462 -0.142475 -1.18442e-20)
(0.405846 -0.139951 0)
(0.506465 -0.136811 0)
(0.60669 -0.132174 0)
(0.704126 -0.128007 -3.13299e-20)
(0.798793 -0.122558 0)
(0.891077 -0.115779 -9.44492e-21)
(0.978578 -0.108964 0)
(1.06142 -0.100355 0)
(1.1391 -0.0901292 0)
(1.21151 -0.0782917 0)
(1.27605 -0.0670316 0)
(1.33162 -0.0553562 0)
(1.37837 -0.0429593 -2.18624e-21)
(1.41598 -0.0293401 0)
(1.44488 -0.0141513 2.12161e-22)
(1.46489 0.00280025 -2.34579e-21)
(1.47462 0.0208009 0)
(1.47245 0.0394054 0)
(1.45704 0.0582218 1.32824e-21)
(1.42631 0.0765634 -2.02656e-22)
(1.38177 0.0954109 1.43236e-21)
(1.3174 0.112563 3.86809e-21)
(0.0138233 -0.970025 -6.59656e-20)
(0.039674 -0.887436 -5.11403e-20)
(0.0329982 -0.730373 -3.04531e-20)
(0.0161402 -0.568687 -1.40098e-20)
(-0.00961742 -0.409916 0)
(-0.0439883 -0.255314 2.78707e-20)
(-0.0866855 -0.105482 -1.3486e-20)
(-0.137628 0.0387125 0)
(-0.196669 0.175853 -1.42832e-20)
(-0.263164 0.303701 0)
(-0.336387 0.418543 2.62091e-20)
(-0.416526 0.516275 0)
(-0.505203 0.595115 1.2205e-20)
(-0.604717 0.657389 2.30184e-20)
(-0.716452 0.708277 -2.17508e-20)
(-0.839615 0.752763 0)
(-0.971136 0.793423 -1.98317e-20)
(-1.10662 0.830084 0)
(-1.24163 0.860944 0)
(-1.37268 0.884019 -1.84913e-20)
(-1.49761 0.898089 0)
(-1.61545 0.90296 -9.33242e-22)
(-1.72613 0.899267 0)
(-1.8301 0.888131 0)
(-1.92811 0.870886 1.03278e-21)
(-2.02107 0.848895 -1.99085e-20)
(-2.10991 0.823435 -2.14933e-20)
(-2.19546 0.79563 -2.1143e-20)
(-2.27845 0.766419 0)
(-2.35943 0.736547 -4.60291e-20)
(-2.43883 0.706572 0)
(-2.51694 0.676889 -2.49049e-20)
(-2.59392 0.647754 0)
(-2.66985 0.61931 0)
(-2.74472 0.591608 2.72087e-20)
(-2.81846 0.564636 0)
(-2.89097 0.538334 -2.87577e-20)
(-2.9621 0.512608 5.22708e-22)
(-3.0317 0.487347 6.00332e-20)
(-3.09956 0.462431 -6.19923e-20)
(-3.16549 0.437734 0)
(-3.22928 0.413139 0)
(-3.29069 0.388535 -3.34892e-20)
(-3.34951 0.363822 0)
(-3.40549 0.338917 -3.36894e-20)
(-3.45838 0.313749 3.41922e-20)
(-3.50794 0.288266 3.46422e-20)
(-3.55392 0.262435 0)
(-3.59607 0.23624 -3.5371e-20)
(-3.63413 0.209684 -3.5644e-20)
(-3.66786 0.182788 7.28357e-20)
(-3.697 0.155592 -3.59945e-20)
(-3.72133 0.128154 -3.60677e-20)
(-3.74062 0.100548 0)
(-3.75465 0.0728617 0)
(-3.76321 0.0451963 3.58587e-20)
(-3.76613 0.0176512 0)
(-3.76328 -0.00968083 0)
(-3.75456 -0.0366822 -6.94832e-20)
(-3.73995 -0.0632128 -6.84028e-20)
(-3.71946 -0.0890961 0)
(-3.69313 -0.114156 0)
(-3.66105 -0.138223 0)
(-3.62335 -0.161132 0)
(-3.58023 -0.182724 -6.10954e-20)
(-3.53191 -0.202846 6.05105e-20)
(-3.47868 -0.221356 5.745e-20)
(-3.42086 -0.238123 1.12157e-19)
(-3.3588 -0.253031 0)