/*--------------------------------*- C++ -*----------------------------------*\
  =========                 |
  \\      /  F ield         | OpenFOAM: The Open Source CFD Toolbox
   \\    /   O peration     | Website:  https://openfoam.org
    \\  /    A nd           | Version:  9
     \\/     M anipulation  |
\*---------------------------------------------------------------------------*/
FoamFile
{
    format      ascii;
    class       volScalarField;
    location    "0.24";
    object      epsilon;
}
// * * * * * * * * * * * * * * * * * * * * * * * * * * * * * * * * * * * * * //

dimensions      [0 2 -3 0 0 0 0];

internalField   nonuniform List<scalar> 
12225
(
209.719
126.295
81.7709
58.3787
45.7253
38.3112
33.415
29.7741
26.8327
24.3466
22.2007
20.335
18.7174
17.3432
16.2824
16.0968
22.1745
92.5668
61.8578
55.0065
42.1665
33.2715
27.5285
23.6771
20.9529
18.9007
17.2564
15.8689
14.6483
13.5387
12.5053
11.528
10.6117
10.1067
13.5773
48.3679
31.6019
33.2508
28.8128
24.3215
20.8008
18.165
16.1845
14.6585
13.4437
12.4453
11.5992
10.8605
10.1966
9.5862
9.05285
9.04507
12.9202
38.5474
21.9048
23.8898
22.1825
19.6753
17.3432
15.4055
13.8504
12.607
11.6039
10.7851
10.1085
9.54292
9.06478
8.66355
8.39468
8.77268
12.8164
33.137
17.8529
19.1086
18.3155
16.7802
15.1552
13.6838
12.43
11.387
10.5269
9.82038
9.24292
8.77523
8.40427
8.13285
8.04318
8.65972
12.5316
28.6916
15.9001
16.424
15.8882
14.8301
13.6303
12.4771
11.4469
10.5594
9.81015
9.18735
8.67889
8.27519
7.97236
7.78493
7.81154
8.54335
12.0282
24.7086
14.8878
14.8373
14.3084
13.4712
12.5212
11.5818
10.7163
9.95055
9.2908
8.73525
8.27997
7.92238
7.66553
7.53238
7.62742
8.38305
11.3817
21.1636
14.3447
13.8768
13.2646
12.5127
11.7021
10.9015
10.1539
9.48157
8.89369
8.39312
7.98063
7.65809
7.43317
7.33363
7.46115
8.17891
10.6721
18.091
14.0495
13.2918
12.5745
11.838
11.0976
10.3823
9.71577
9.11273
8.58107
8.12486
7.74693
7.45151
7.24873
7.16791
7.30197
7.94473
9.9617
15.5021
13.889
12.938
12.1229
11.3685
10.6563
9.98946
9.37569
8.82186
8.33261
7.91116
7.56063
7.28597
7.09804
7.02516
7.14814
7.69754
9.29243
13.3756
13.8022
12.7271
11.8327
11.0482
10.3406
9.69762
9.11579
8.59509
8.13641
7.74116
7.41163
7.15239
6.9737
6.90114
7.00215
7.45308
8.68948
11.6664
13.7594
12.6142
11.666
10.8531
10.1391
9.50408
8.93822
8.43665
7.99716
7.61919
7.30379
7.05452
6.88031
6.80326
6.87877
7.24251
8.20801
10.4277
13.7349
12.5451
11.5578
10.7201
9.99568
9.36158
8.80385
8.31418
7.8878
7.52226
7.21718
6.97481
6.80231
6.71778
6.76505
7.04529
7.77775
9.39464
13.7202
12.5011
11.4848
10.6254
9.88903
9.25174
8.69732
8.21506
7.79801
7.44193
7.14485
6.9074
6.7345
6.63975
6.6555
6.85274
7.37626
8.49626
13.7124
12.4764
11.4413
10.5661
9.81916
9.17712
8.62297
8.14459
7.73352
7.38398
7.09246
6.85786
6.6826
6.57565
6.55882
6.67837
7.02385
7.75382
13.7086
12.4644
11.4194
10.5348
9.78097
9.13527
8.58067
8.10446
7.69726
7.35214
7.06425
6.83084
6.6519
6.53206
6.48416
6.53553
6.73723
7.17575
13.707
12.4595
11.4105
10.5223
9.7659
9.11927
8.56553
8.09173
7.68792
7.34638
7.06121
6.82822
6.64531
6.51341
6.43843
6.43421
6.5267
6.75879
13.7062
12.4578
11.4084
10.5204
9.76508
9.12055
8.56987
8.09986
7.70015
7.36242
7.07998
6.84754
6.66136
6.51963
6.42335
6.37762
6.39315
6.48828
13.7058
12.4577
11.41
10.5248
9.77332
9.13333
8.58758
8.12255
7.72748
7.39363
7.11376
6.88188
6.69319
6.54417
6.43282
6.35915
6.32559
6.33779
13.7064
12.4612
11.4183
10.5392
9.79398
9.15967
8.61856
8.15689
7.76381
7.43056
7.14993
6.91585
6.72328
6.56813
6.4473
6.35885
6.30207
6.2779
13.7102
12.4747
11.444
10.5768
9.8412
9.21321
8.675
8.21319
7.8175
7.4798
7.1934
6.95268
6.7528
6.58965
6.45979
6.36052
6.28985
6.24678
13.7244
12.5181
11.5179
10.6749
9.95415
9.33176
8.79159
8.32229
7.91553
7.56476
7.26448
7.00991
6.79669
6.62092
6.47907
6.36806
6.28527
6.22879
13.768
12.6385
11.7037
10.9008
10.1952
9.56903
9.01265
8.52017
8.08718
7.70974
7.38398
7.106
6.87188
6.67773
6.51984
6.39471
6.29919
6.23073
13.8905
12.9365
12.1175
11.3622
10.6534
9.99347
9.38959
8.84556
8.36262
7.93967
7.57403
7.262
6.99936
6.78162
6.60435
6.46327
6.35447
6.27472
14.2125
13.611
12.9528
12.2132
11.4418
10.6871
9.98017
9.34077
8.77571
8.28469
7.86403
7.50837
7.21157
6.96741
6.76981
6.61313
6.49228
6.40311
15.0246
15.053
14.537
13.687
12.7157
11.7517
10.8599
10.0664
9.38071
8.79818
8.3095
7.90411
7.57156
7.30212
7.08698
6.91839
6.78963
6.69531
17.0667
18.0872
17.4724
16.1774
14.733
13.369
12.1696
11.1511
10.3016
9.60581
9.04053
8.58477
8.22044
7.93221
7.70731
7.53512
7.40689
7.31563
22.5903
24.7525
23.0642
20.5062
18.0593
15.9789
14.2915
12.9489
11.8868
11.0553
10.4088
9.90827
9.52336
9.23062
9.01179
8.85264
8.742
8.67083
40.9362
41.3177
35.0204
29.1197
24.5426
21.1227
18.6009
16.7409
15.3603
14.3418
13.6009
13.065
12.6827
12.417
12.2414
12.1364
12.0875
12.0831
135.929
97.0345
71.6076
54.9405
43.9872
36.7559
31.9328
28.6602
26.4048
24.8885
23.8919
23.2531
22.8708
22.6769
22.6241
22.6784
22.8142
23.0101
31.0986
37.2895
45.128
50.0426
52.7473
53.7346
53.3382
51.7834
49.2826
46.4415
44.0507
42.0241
40.5312
39.8844
40.4087
42.2725
45.3371
49.112
52.8319
56.0028
58.5198
60.6975
63.385
67.4695
72.4391
78.1997
84.7476
92.1187
100.343
109.433
119.379
130.154
141.713
154
166.949
180.492
194.555
209.065
223.949
239.139
254.565
270.164
285.874
301.636
317.395
333.095
348.686
364.119
379.345
394.321
409.008
423.371
437.384
451.035
464.329
477.297
490.006
502.577
514.926
526.364
536.835
546.26
554.533
561.537
567.141
571.217
573.632
574.262
572.988
569.706
564.329
556.794
547.063
535.132
521.032
504.834
486.652
466.643
445.005
421.979
397.841
372.898
347.476
321.918
296.563
271.744
247.768
224.914
203.415
183.459
165.18
148.66
133.932
120.982
109.756
100.169
92.1096
85.4491
80.0526
75.7916
72.5727
70.3957
68.8334
67.7801
67.151
66.8722
66.8799
67.1196
67.5447
68.1155
68.7978
69.5624
70.3836
71.2393
72.1098
72.978
73.8287
74.6483
75.4249
76.1479
76.808
77.397
77.9077
78.3338
78.6701
78.912
79.0557
79.0982
79.0373
78.8717
78.6013
78.2277
77.7554
77.1938
76.5606
75.8793
75.1117
74.2564
73.317
72.2982
71.2058
70.0464
68.8272
67.557
66.2473
64.92
63.6218
62.4513
61.6346
61.9561
68.2121
67.2728
66.8032
65.936
14.7017
14.7327
65.9826
66.9564
66.6305
66.7615
15.6129
15.6213
67.1421
15.608
69.5178
70.1033
15.4075
16.3499
15.5353
15.723
16.2162
15.5371
16.2112
16.913
17.0363
17.0632
16.8951
17.2133
17.0219
16.5342
57.6404
43.5555
38.5854
35.8331
34.0227
32.7713
31.9133
31.3695
31.1417
31.3854
32.2412
33.6668
35.8056
38.8649
43.0083
48.2486
54.4425
61.423
68.195
74.6431
80.8728
86.981
93.019
98.9321
104.58
109.875
114.766
119.245
123.329
127.057
130.48
133.653
136.628
139.455
142.176
144.826
147.431
150.013
152.584
155.153
157.723
160.296
162.869
165.437
167.997
170.543
173.069
175.572
178.049
180.5
182.928
185.341
187.751
190.179
192.655
195.224
197.943
200.883
204.173
207.345
210.318
213.047
215.487
217.589
219.303
220.574
221.348
221.57
221.188
220.149
218.41
215.93
212.679
208.639
203.802
198.178
191.79
184.68
176.906
168.547
159.693
150.453
140.946
131.3
121.647
112.119
102.846
93.944
85.5201
77.6618
70.4382
63.8971
58.0651
52.9488
48.5357
44.7974
41.6921
39.1684
37.1699
35.6413
34.5365
33.8177
33.3516
33.074
32.9423
32.9234
32.9907
33.1221
33.2999
33.5092
33.7379
33.976
34.2152
34.4485
34.6702
34.8753
35.0597
35.22
35.3533
35.4571
35.5294
35.5685
35.5732
35.5424
35.4753
35.3715
35.2309
35.0535
34.8398
34.5906
34.3073
33.992
33.6477
33.2785
32.8903
32.4909
32.0677
31.6191
31.1471
30.654
30.1424
29.6151
29.0753
28.5271
27.9755
27.4289
26.8997
26.4034
25.9434
25.4983
25.4216
25.0096
24.6627
24.0524
21.1239
21.1395
23.8811
23.558
23.1718
22.5191
17.8803
17.9711
21.9076
17.6544
21.5272
21.3577
18.2099
15.766
17.8483
16.0837
15.0954
17.273
14.5782
13.4232
12.9332
12.5784
12.2614
11.9702
11.6084
11.2418
77.6965
52.5727
43.8653
39.4257
36.7766
35.1588
34.301
34.1311
34.7074
36.0608
38.2724
41.5331
46.0333
51.5979
58.0372
64.9878
72.0153
78.7175
84.759
90.0471
94.6166
98.5344
101.858
104.63
106.893
108.709
110.153
111.309
112.258
113.074
113.82
114.547
115.289
116.073
116.911
117.808
118.765
119.776
120.834
121.933
123.065
124.227
125.415
126.629
127.872
129.148
130.465
131.83
133.254
134.748
136.322
137.989
139.76
141.645
143.656
145.799
148.081
150.501
153.005
155.503
157.95
160.313
162.554
164.632
166.503
168.117
169.424
170.373
170.91
170.982
170.54
169.538
167.936
165.701
162.811
159.255
155.035
150.167
144.684
138.634
132.081
125.104
117.795
110.257
102.599
94.9352
87.3805
80.0437
73.0256
66.4143
60.2825
54.6851
49.6583
45.2193
41.3678
38.0874
35.3488
33.1127
31.333
29.9606
28.9466
28.2432
27.7691
27.4663
27.2919
27.213
27.2033
27.2426
27.3145
27.4067
27.5093
27.6147
27.7169
27.8114
27.8944
27.9631
28.0152
28.0488
28.0624
28.0548
28.0252
27.9728
27.8971
27.7977
27.6745
27.5275
27.3568
27.1628
26.9462
26.7077
26.4484
26.1698
25.8735
25.5617
25.2364
24.8995
24.5503
24.1861
23.8085
23.4189
23.0193
22.6115
22.198
21.7811
21.3643
20.9517
20.5486
20.1585
19.7758
19.3775
18.9783
18.6374
18.3282
17.984
17.4665
17.2495
17.3209
17.0332
16.7628
16.4361
15.6261
15.4816
15.7873
15.1149
15.3571
15.1659
14.683
14.0233
14.27
13.8166
13.3938
13.6016
12.8758
12.2301
11.7983
11.4275
11.075
10.6571
10.2551
9.89849
96.5826
62.0008
51.1107
45.939
43.0201
41.3909
40.7589
41.0745
42.2925
44.3664
47.4067
51.4846
56.5593
62.4081
68.6715
74.9157
80.7335
85.8271
90.046
93.3885
95.9445
97.8396
99.2022
100.152
100.799
101.243
101.57
101.85
102.135
102.464
102.857
103.326
103.871
104.486
105.161
105.887
106.651
107.443
108.257
109.089
109.937
110.804
111.694
112.615
113.577
114.591
115.67
116.827
118.074
119.424
120.888
122.478
124.201
126.063
128.069
130.219
132.507
134.925
137.432
139.988
142.562
145.123
147.636
150.063
152.359
154.476
156.364
157.967
159.231
160.099
160.513
160.422
159.775
158.529
156.648
154.107
150.892
147.004
142.458
137.286
131.536
125.273
118.577
111.542
104.274
96.8857
89.4938
82.2149
75.1603
68.4316
62.1168
56.2868
50.9932
46.2677
42.1223
38.5507
35.5314
33.03
31.0036
29.4033
28.1772
27.2728
26.6236
26.1704
25.8661
25.6733
25.5619
25.5085
25.4947
25.5063
25.5325
25.5653
25.5986
25.6277
25.6492
25.6606
25.6596
25.6449
25.6152
25.5695
25.5071
25.4273
25.3298
25.2143
25.0805
24.9284
24.7582
24.57
24.3643
24.1416
23.9025
23.6481
23.3792
23.097
22.8025
22.4967
22.1801
21.8521
21.5133
21.1649
20.8082
20.4447
20.0763
19.7047
19.3324
18.962
18.5963
18.2372
17.8823
17.5243
17.1662
16.8437
16.5402
16.2396
15.9296
15.6662
15.4514
15.1954
14.9672
14.7262
14.4079
14.216
14.1015
13.8413
13.714
13.5307
13.3095
13.0265
12.9321
12.7033
12.4505
12.3108
11.9869
11.6115
11.2779
10.9486
10.6109
10.2115
9.83099
9.49178
115.474
72.9799
60.4068
54.68
51.5636
49.8997
49.3418
49.7136
50.8895
52.944
55.9042
59.7171
64.2196
69.1351
74.1162
78.8147
82.9527
86.3686
89.0236
90.9787
92.352
93.2809
93.8967
94.3135
94.6243
94.9015
95.1968
95.544
95.9614
96.4549
97.0215
97.652
98.3338
99.0531
99.7964
100.552
101.312
102.07
102.825
103.577
104.333
105.098
105.886
106.706
107.574
108.505
109.513
110.614
111.822
113.151
114.613
116.218
117.974
119.887
121.958
124.186
126.566
129.088
131.724
134.448
137.237
140.06
142.886
145.676
148.39
150.979
153.392
155.574
157.467
159.012
160.147
160.813
160.95
160.507
159.436
157.697
155.263
152.117
148.259
143.703
138.481
132.645
126.263
119.418
112.214
104.761
97.1819
89.603
82.1492
74.94
68.0835
61.6718
55.7778
50.4523
45.7237
41.5987
38.0648
35.0933
32.6433
30.6654
29.1052
27.9061
27.0056
26.3405
25.8589
25.518
25.2826
25.1248
25.0222
24.9576
24.9178
24.893
24.8757
24.8605
24.8431
24.8207
24.7908
24.7516
24.7018
24.6402
24.5659
24.4782
24.3765
24.2603
24.1293
23.9832
23.8218
23.6453
23.4537
23.2472
23.0262
22.7912
22.5427
22.2814
22.0077
21.7223
21.4258
21.1188
20.8015
20.4746
20.1393
19.7967
19.4482
19.0953
18.7399
18.3839
18.0293
17.6777
17.3293
16.9828
16.6409
16.3163
16.0039
15.6996
15.4022
15.1199
14.8553
14.5974
14.361
14.1273
13.8842
13.674
13.4861
13.2807
13.1014
12.9176
12.7308
12.5291
12.3688
12.1798
11.974
11.7811
11.546
11.2742
10.9982
10.7079
10.396
10.0415
9.69812
9.38324
133.393
84.781
70.7678
64.5319
61.1584
59.3059
58.4273
58.3028
58.9732
60.4575
62.7185
65.6416
69.0303
72.6274
76.1587
79.3849
82.1424
84.3612
86.056
87.3017
88.2029
88.8683
89.3946
89.86
90.3216
90.8179
91.3709
91.9893
92.6718
93.4104
94.1925
95.0038
95.8295
96.6562
97.4729
98.2715
99.0472
99.7991
100.53
101.245
101.953
102.667
103.399
104.164
104.98
105.864
106.831
107.899
109.083
110.398
111.856
113.469
115.245
117.189
119.303
121.587
124.035
126.638
129.38
132.241
135.202
138.236
141.315
144.405
147.465
150.45
153.311
155.995
158.442
160.591
162.38
163.743
164.616
164.937
164.648
163.697
162.039
159.644
156.491
152.575
147.911
142.53
136.485
129.847
122.709
115.179
107.38
99.4462
91.5165
83.7287
76.2137
69.0888
62.4525
56.3803
50.9222
46.1025
41.9217
38.3591
35.3775
32.9276
30.953
29.3933
28.1849
27.2602
26.5619
26.0415
25.6585
25.3794
25.1775
25.0313
24.9244
24.8443
24.7815
24.7289
24.6812
24.6344
24.5854
24.532
24.4723
24.4047
24.328
24.2411
24.1433
24.0336
23.9116
23.7767
23.6284
23.4666
23.2911
23.1017
22.8985
22.6816
22.4514
22.2079
21.9516
21.6828
21.402
21.1098
20.8068
20.4936
20.1708
19.8394
19.5004
19.1553
18.8054
18.4524
18.0979
17.7435
17.3904
17.0395
16.6929
16.3553
16.0258
15.704
15.3902
15.0869
14.7961
14.5184
14.2572
14.0046
13.7578
13.5262
13.308
13.0955
12.8944
12.6984
12.5068
12.3146
12.1331
11.945
11.7476
11.5464
11.3311
11.095
10.8462
10.5805
10.2935
9.97753
9.66777
9.37687
149.251
95.9194
80.7965
74.152
70.5062
68.1733
66.6625
65.8923
65.8521
66.5254
67.8509
69.7075
71.92
74.2842
76.6028
78.7198
80.5415
82.0401
83.2413
84.2048
85.0038
85.7091
86.3796
87.0589
87.7753
88.5432
89.3661
90.2395
91.1532
92.0935
93.0454
93.9942
94.9262
95.8304
96.6982
97.5249
98.3088
99.052
99.7599
100.441
101.107
101.771
102.449
103.158
103.916
104.74
105.649
106.66
107.791
109.056
110.469
112.042
113.782
115.698
117.792
120.063
122.509
125.122
127.89
130.804
133.846
136.998
140.233
143.521
146.826
150.108
153.322
156.416
159.333
162.015
164.398
166.414
167.995
169.073
169.58
169.452
168.632
167.07
164.725
161.573
157.604
152.828
147.275
140.999
134.074
126.601
118.697
110.499
102.157
93.8238
85.6542
77.7928
70.3675
63.4837
57.2186
51.6198
46.7058
42.4684
38.8771
35.8835
33.4313
31.456
29.891
28.6638
27.7118
26.9811
26.4254
26.0058
25.6901
25.4525
25.2724
25.1341
25.0252
24.9366
24.8614
24.7941
24.7307
24.668
24.6036
24.5352
24.4613
24.3803
24.2911
24.1923
24.0833
23.963
23.8308
23.6861
23.5285
23.3575
23.1729
22.9746
22.7625
22.5365
22.2968
22.0436
21.7771
21.4979
21.2066
20.9038
20.5898
20.2655
19.9317
19.5895
19.2402
18.885
18.5256
18.1634
17.8002
17.4372
17.0763
16.7198
16.3684
16.0229
15.6843
15.3545
15.0352
14.7283
14.4349
14.1523
13.8797
13.6196
13.3717
13.1346
12.908
12.6899
12.4791
12.273
12.0725
11.8716
11.6667
11.4574
11.2411
11.0129
10.7732
10.5194
10.2493
9.96083
9.67509
9.40293
162.629
105.593
89.5757
82.5264
78.3384
75.4599
73.4078
72.0351
71.3016
71.1801
71.6147
72.5075
73.7249
75.1187
76.5515
77.9193
79.1626
80.2647
81.2425
82.1319
82.9748
83.8099
84.6669
85.5647
86.5119
87.5082
88.5469
89.6163
90.7021
91.7885
92.8603
93.9033
94.9052
95.8567
96.7514
97.5865
98.3623
99.0827
99.7548
100.389
100.997
101.595
102.198
102.825
103.495
104.226
105.037
105.947
106.973
108.132
109.436
110.9
112.532
114.341
116.33
118.503
120.856
123.384
126.081
128.942
131.959
135.114
138.389
141.758
145.192
148.655
152.107
155.503
158.791
161.915
164.814
167.421
169.669
171.483
172.791
173.519
173.596
172.956
171.54
169.299
166.199
162.224
157.376
151.684
145.2
138.004
130.202
121.926
113.329
104.577
95.8443
87.3033
79.1139
71.4154
64.3179
57.8983
52.1997
47.2317
42.9748
39.3809
36.4008
33.9632
31.9977
30.4281
29.1862
28.2141
27.46
26.8788
26.4329
26.0914
25.8293
25.6269
25.4685
25.3425
25.2396
25.153
25.0771
25.0077
24.9414
24.8755
24.8076
24.7358
24.6582
24.5735
24.4802
24.3772
24.2635
24.1382
24.0004
23.8495
23.6851
23.5065
23.3135
23.1059
22.8836
22.6465
22.3947
22.1286
21.8485
21.5553
21.2494
20.931
20.6009
20.26
19.9094
19.5503
19.1841
18.8123
18.4364
18.0582
17.6791
17.301
16.9251
16.5528
16.1855
15.8251
15.4734
15.1321
14.8024
14.4838
14.1764
13.8813
13.5987
13.3285
13.0699
12.8218
12.5833
12.3523
12.1276
11.9058
11.6839
11.4603
11.2332
10.9994
10.7576
10.5059
10.2433
9.97067
9.69948
9.43845
174.53
113.733
96.3789
88.6436
84.0633
80.8491
78.4248
76.604
75.3318
74.5832
74.3195
74.4744
74.9567
75.6643
76.5021
77.3963
78.3014
79.1992
80.0921
80.9941
81.9229
82.8937
83.916
84.9924
86.1192
87.2874
88.4839
89.6933
90.8993
92.0852
93.2357
94.3371
95.3781
96.3503
97.2484
98.0706
98.8181
99.4957
100.111
100.675
101.201
101.705
102.202
102.713
103.255
103.848
104.513
105.268
106.13
107.118
108.245
109.526
110.972
112.592
114.392
116.376
118.544
120.894
123.42
126.126
129.007
132.054
135.252
138.582
142.02
145.54
149.106
152.681
156.221
159.675
162.988
166.098
168.938
171.435
173.513
175.093
176.094
176.436
176.041
174.84
172.773
169.794
165.875
161.013
155.23
148.578
141.142
133.039
124.415
115.443
106.31
97.2149
88.3489
79.8885
71.9819
64.7398
58.2383
52.5121
47.5602
43.3347
39.7821
36.8377
34.43
32.4801
30.9162
29.6738
28.6954
27.9302
27.3361
26.8769
26.5222
26.2479
26.0349
25.8682
25.736
25.6295
25.5415
25.4665
25.4
25.3384
25.2787
25.2182
25.1547
25.0862
25.0111
24.9277
24.8346
24.7307
24.6147
24.4859
24.3432
24.1862
24.014
23.8264
23.6229
23.4033
23.1676
22.9158
22.648
22.3653
22.0678
21.7559
21.4299
21.0907
20.7391
20.3762
20.0033
19.6217
19.2331
18.8389
18.4409
18.0405
17.6393
17.2391
16.8414
16.4484
16.0618
15.6835
15.3149
14.9567
14.6097
14.275
13.953
13.644
13.3478
13.0639
12.7912
12.5284
12.2738
12.025
11.7795
11.5353
11.2907
11.0433
10.7915
10.534
10.2706
10.0029
9.73787
9.48022
178.395
117.519
100.195
92.4123
87.729
84.3722
81.7566
79.6797
78.0767
76.925
76.2023
75.8698
75.8709
76.1388
76.6075
77.2215
77.9416
78.7448
79.6209
80.5676
81.5851
82.6727
83.8265
85.0389
86.2982
87.59
88.8976
90.2034
91.4896
92.7391
93.9363
95.0677
96.1222
97.0918
97.9714
98.7594
99.4573
100.07
100.605
101.074
101.49
101.868
102.225
102.581
102.955
103.366
103.835
104.382
105.026
105.783
106.671
107.704
108.894
110.253
111.789
113.508
115.412
117.503
119.774
122.235
124.886
127.724
130.739
133.918
137.245
140.698
144.253
147.879
151.54
155.195
158.797
162.29
165.613
168.698
171.471
173.848
175.746
177.074
177.74
177.657
176.739
174.912
172.118
168.315
163.49
157.66
150.878
143.234
134.858
125.917
116.606
107.139
97.7399
88.6224
79.9782
71.9513
64.6948
58.2283
52.5591
47.6649
43.5027
40.0145
37.1285
34.7647
32.8479
31.3084
30.0829
29.1153
28.3566
27.7651
27.3058
26.9511
26.6771
26.4652
26.301
26.173
26.0724
25.9919
25.9259
25.8697
25.8195
25.772
25.7243
25.674
25.6189
25.5569
25.4864
25.4058
25.3137
25.2087
25.0899
24.9562
24.8069
24.6411
24.4584
24.2584
24.0407
23.8052
23.5519
23.2812
22.9939
22.69
22.3698
22.0337
21.6827
21.3175
20.9393
20.5494
20.1492
19.7403
19.3242
18.9025
18.4768
18.049
17.621
17.1949
16.7726
16.3563
15.9476
15.548
15.1588
14.7812
14.4163
14.0647
13.7268
13.4022
13.0905
12.7908
12.5014
12.2205
11.946
11.676
11.4086
11.1418
10.8741
10.6045
10.3331
10.0614
9.79395
9.53357
179.585
121.781
103.776
95.1926
90.0256
86.4295
83.6846
81.4957
79.7491
78.4049
77.4448
76.8474
76.5808
76.603
76.8689
77.3358
77.9688
78.7414
79.6351
80.6364
81.734
82.9168
84.1725
85.4864
86.8421
88.2217
89.6062
90.9763
92.3134
93.5997
94.8194
95.9585
97.0059
97.9532
98.795
99.5295
100.158
100.684
101.117
101.466
101.744
101.968
102.155
102.322
102.492
102.683
102.917
103.214
103.594
104.076
104.677
105.413
106.298
107.345
108.564
109.962
111.546
113.319
115.275
117.426
119.778
122.329
125.076
128.011
131.125
134.403
137.828
141.38
145.031
148.751
152.5
156.236
159.904
163.444
166.787
169.855
172.562
174.813
176.51
177.548
177.825
177.24
175.703
173.137
169.488
164.732
158.881
151.989
144.155
135.528
126.298
116.689
106.948
97.3228
88.0769
79.415
71.4496
64.2533
57.8643
52.2856
47.4912
43.4325
40.04
37.2346
34.9389
33.0787
31.5855
30.3972
29.4588
28.7231
28.1498
27.7056
27.3631
27.1011
26.9012
26.7496
26.6349
26.5485
26.483
26.4328
26.393
26.3595
26.329
26.2982
26.2646
26.2258
26.1796
26.1241
26.0576
25.9785
25.8854
25.7772
25.6526
25.5109
25.3512
25.173
24.9756
24.7588
24.5224
24.2663
23.9915
23.698
23.3858
23.0554
22.7073
22.3422
21.9612
21.5655
21.1562
20.7348
20.3029
19.862
19.4137
18.9601
18.5032
18.0451
17.5879
17.1339
16.6852
16.2436
15.811
15.3889
14.9789
14.582
14.1991
13.8305
13.4761
13.1352
12.807
12.4898
12.1819
11.8816
11.5868
11.296
11.0075
10.7206
10.4351
10.1524
9.87535
9.60583
150.407
145.707
113.067
98.8307
91.7046
87.4629
84.5419
82.3264
80.5771
79.2072
78.187
77.5012
77.1318
77.054
77.2373
77.6496
78.2601
79.0418
79.9717
81.0298
82.1979
83.4584
84.7933
86.1839
87.6104
89.0526
90.49
91.902
93.2692
94.5733
95.7977
96.928
97.9524
98.8618
99.6504
100.315
100.857
101.28
101.592
101.801
101.922
101.969
101.961
101.917
101.856
101.802
101.774
101.795
101.886
102.066
102.353
102.766
103.32
104.028
104.902
105.951
107.184
108.606
110.219
112.025
114.034
116.249
118.669
121.293
124.115
127.129
130.326
133.692
137.211
140.863
144.619
148.447
152.304
156.141
159.897
163.503
166.876
169.925
172.548
174.634
176.066
176.725
176.492
175.26
172.934
169.445
164.759
158.882
151.875
143.851
134.981
125.486
115.627
105.749
96.116
86.9198
78.322
70.4429
63.3586
57.1023
51.6699
47.0274
43.1102
39.8433
37.1487
34.949
33.1708
31.7464
30.6151
29.7237
29.0268
28.4861
28.0699
27.7525
27.5128
27.3347
27.2043
27.1109
27.0455
27.0013
26.9723
26.9537
26.9411
26.931
26.9202
26.9059
26.8854
26.8566
26.8173
26.7658
26.7004
26.6195
26.5219
26.4064
26.272
26.1179
25.9434
25.7479
25.5311
25.2926
25.033
24.7527
24.4516
24.1298
23.7877
23.4259
23.0453
22.6468
22.2316
21.8011
21.3565
20.8995
20.4317
19.9551
19.4718
18.9839
18.4938
18.0038
17.5162
17.0334
16.5574
16.0904
15.6343
15.1906
14.7608
14.3456
13.9455
13.5605
13.1899
12.8328
12.4878
12.1532
11.8273
11.5084
11.195
10.8862
10.5817
10.2822
9.9896
9.70499
175.226
127.444
107.075
96.6687
90.7478
86.9827
84.3295
82.3115
80.719
79.4678
78.528
77.8885
77.5405
77.4704
77.6587
78.082
78.7149
79.5323
80.5099
81.625
82.8558
84.1809
85.5792
87.0292
88.509
89.9968
91.4709
92.9098
94.2933
95.6022
96.8193
97.9295
98.9199
99.7808
100.505
101.09
101.535
101.843
102.02
102.078
102.028
101.886
101.67
101.401
101.099
100.788
100.489
100.225
100.019
99.891
99.8617
99.9491
100.169
100.537
101.066
101.765
102.645
103.712
104.972
106.423
108.073
109.928
111.991
114.261
116.741
119.428
122.32
125.413
128.699
132.166
135.799
139.576
143.467
147.435
151.431
155.395
159.256
162.928
166.313
169.299
171.766
173.58
174.606
174.707
173.757
171.642
168.279
163.625
157.685
150.528
142.29
133.173
123.535
113.667
103.82
94.2338
85.1167
76.6361
68.9103
62.0079
55.952
50.7277
46.2799
42.5411
39.4352
36.8831
34.8075
33.1354
31.8006
30.7445
29.9161
29.2722
28.7768
28.4
28.1177
27.9104
27.762
27.6601
27.5942
27.5556
27.5375
27.534
27.54
27.5513
27.5642
27.5753
27.5818
27.581
27.5704
27.5481
27.5119
27.4603
27.3916
27.3044
27.1976
27.07
26.9209
26.7494
26.555
26.3373
26.0959
25.832
25.5451
25.2352
24.9026
24.5477
24.1711
23.7737
23.3565
22.9206
22.4673
21.9981
21.5146
21.0187
20.5125
19.9982
19.4782
18.9548
18.4307
17.9084
17.3905
16.8793
16.3772
15.8864
15.4085
14.9453
14.4975
14.0658
13.6502
13.2501
12.8646
12.4924
12.1318
11.7813
11.4393
11.1047
10.7769
10.456
10.1431
9.83852
178.459
119.976
101.848
93.4041
88.6053
85.5054
83.3016
81.6277
80.3166
79.2978
78.546
78.054
77.8191
77.8356
78.0928
78.575
79.2628
80.1347
81.168
82.34
83.6277
85.0082
86.4587
87.9561
89.4773
90.9995
92.4997
93.956
95.3472
96.6532
97.8561
98.9398
99.8905
100.697
101.353
101.852
102.195
102.383
102.423
102.324
102.1
101.766
101.342
100.847
100.306
99.7404
99.1755
98.635
98.1424
97.72
97.3886
97.1671
97.0727
97.1204
97.3232
97.6922
98.2372
98.9659
99.8855
100.99
102.287
103.782
105.478
107.38
109.491
111.815
114.355
117.113
120.09
123.283
126.688
130.292
134.08
138.024
142.091
146.232
150.387
154.483
158.429
162.121
165.436
168.242
170.39
171.73
172.105
171.37
169.394
166.08
161.379
155.301
147.931
139.544
130.403
120.767
110.913
101.115
91.625
82.6572
74.3738
66.8828
60.2393
54.4531
49.4832
45.2737
41.7533
38.8432
36.4634
34.5366
32.9916
31.7643
30.7987
30.0466
29.4675
29.0279
28.7
28.4613
28.2935
28.1818
28.1141
28.0806
28.073
28.0846
28.1094
28.1425
28.1797
28.2171
28.2514
28.2796
28.2989
28.307
28.3016
28.2808
28.2427
28.1858
28.1086
28.01
27.8887
27.7438
27.5747
27.3806
27.161
26.9166
26.6473
26.3529
26.0335
25.6893
25.3207
24.9285
24.5135
24.0766
23.619
23.1421
22.6473
22.1366
21.6118
21.0752
20.5291
19.9761
19.4189
18.86
18.3025
17.749
17.2022
16.6648
16.139
15.6271
15.1305
14.6505
14.1877
13.7421
13.3134
12.9005
12.5021
12.1167
11.7427
11.3788
11.024
10.6779
10.3406
10.012
177.655
116.068
98.0481
90.2738
86.1105
83.5417
81.787
80.5044
79.5382
78.8208
78.3271
78.0509
77.9921
78.1504
78.5216
79.0968
79.8627
80.8026
81.8972
83.1255
84.4654
85.8942
87.3885
88.9248
90.4792
92.0282
93.5481
95.0162
96.4105
97.7102
98.8963
99.9517
100.862
101.615
102.201
102.617
102.859
102.93
102.835
102.585
102.193
101.675
101.05
100.342
99.5734
98.7699
97.9572
97.1607
96.4052
95.714
95.1087
94.6087
94.2311
93.9909
93.9008
93.9716
94.2128
94.632
95.236
96.0175
96.981
98.1305
99.4709
101.007
102.746
104.695
106.861
109.251
111.874
114.735
117.836
121.178
124.753
128.547
132.539
136.693
140.964
145.288
149.587
153.766
157.712
161.293
164.364
166.764
168.323
168.87
168.239
166.285
162.9
158.033
151.801
144.374
135.947
126.771
117.13
107.321
97.6334
88.3214
79.5923
71.5961
64.4241
58.1146
52.647
47.9811
44.0537
40.7887
38.1049
35.922
34.1642
32.7628
31.6568
30.7935
30.128
29.6229
29.2471
28.9753
28.7865
28.6638
28.5936
28.5643
28.5668
28.5931
28.6366
28.6916
28.7533
28.8174
28.8801
28.938
28.9881
29.0276
29.0542
29.0655
29.0596
29.0346
28.989
28.9212
28.83
28.7143
28.5731
28.4056
28.2111
27.9894
27.7411
27.4658
27.1633
26.8338
26.4774
26.0947
25.6863
25.2531
24.7959
24.3161
23.8151
23.2944
22.756
22.2019
21.6345
21.0563
20.4701
19.8786
19.2848
18.6919
18.1027
17.5205
16.9479
16.3876
15.842
15.3128
14.8013
14.3083
13.8339
13.3777
12.9387
12.5154
12.1064
11.71
11.3249
10.9502
10.5852
10.2293
174.984
112.804
94.7188
87.2247
83.4606
81.3191
79.9871
79.109
78.5206
78.1471
77.9581
77.9445
78.1064
78.4462
78.9645
79.6583
80.5202
81.5388
82.6993
83.984
85.3731
86.845
88.3772
89.9463
91.5283
93.0992
94.635
96.1123
97.5082
98.8012
99.9712
101
101.872
102.574
103.096
103.433
103.58
103.541
103.32
102.927
102.375
101.684
100.872
99.9634
98.9841
97.9606
96.9203
95.8901
94.8961
93.9624
93.1111
92.3617
91.7309
91.2331
90.8803
90.6825
90.6485
90.7859
91.1018
91.589
92.2462
93.0757
94.0818
95.2707
96.6503
98.2303
100.022
102.036
104.287
106.784
109.54
112.561
115.85
119.404
123.211
127.25
131.486
135.87
140.335
144.798
149.157
153.289
157.054
160.293
162.834
164.491
165.079
164.414
162.337
158.803
153.84
147.527
140.014
131.521
122.32
112.719
103.027
93.5367
84.496
76.0976
68.4717
61.6879
55.7543
50.6515
46.3282
42.7136
39.7277
37.2883
35.3161
33.7381
32.4889
31.5114
30.7567
30.1836
29.7578
29.4507
29.2393
29.1045
29.0306
29.0049
29.0168
29.0575
29.1194
29.1964
29.2829
29.374
29.4656
29.5539
29.6356
29.7076
29.7673
29.8121
29.8399
29.8485
29.8363
29.8015
29.7426
29.6584
29.5478
29.4096
29.2432
29.0477
28.8237
28.571
28.2891
27.978
27.6378
27.2688
26.8714
26.4463
25.9942
25.5163
25.0138
24.488
23.9408
23.3742
22.7903
22.1915
21.5807
20.9607
20.3345
19.7054
19.0767
18.4518
17.8339
17.2263
16.6317
16.0528
15.4915
14.9494
14.4272
13.9251
13.4425
12.9784
12.5313
12.0993
11.6809
11.2744
10.8787
10.4927
171.182
109.757
91.8103
84.525
81.0514
79.2484
78.2763
77.7602
77.5219
77.4755
77.5826
77.8294
78.2142
78.74
79.4102
80.2261
81.1851
82.281
83.5032
84.8378
86.268
87.7744
89.3359
90.9299
92.5328
94.1208
95.6694
97.1548
98.5536
99.8432
101.003
102.013
102.858
103.522
103.995
104.27
104.343
104.215
103.892
103.383
102.703
101.869
100.903
99.8296
98.6763
97.4712
96.243
95.02
93.829
92.6949
91.6397
90.6827
89.8399
89.1245
88.5472
88.1169
87.8412
87.727
87.7819
88.0002
88.3757
88.9084
89.6021
90.4632
91.5006
92.7255
94.1512
95.7925
97.6655
99.7866
102.172
104.835
107.787
111.035
114.575
118.396
122.476
126.777
131.246
135.809
140.375
144.834
149.053
152.883
156.154
158.684
160.274
160.724
159.869
157.619
153.923
148.794
142.322
134.68
126.114
116.92
107.421
97.9326
88.7392
80.0728
72.1025
64.9294
58.5971
53.1096
48.4303
44.4966
41.2314
38.5523
36.3781
34.6325
33.2464
32.159
31.3178
30.6783
30.2032
29.8613
29.6272
29.4797
29.4017
29.3788
29.3995
29.4538
29.5336
29.6318
29.7423
29.86
29.9801
30.0986
30.2118
30.3165
30.4096
30.4884
30.5505
30.5938
30.616
30.6156
30.5907
30.5399
30.4619
30.3556
30.2199
30.054
29.8575
29.6308
29.3733
29.0846
28.7649
28.414
28.0324
27.6205
27.1789
26.7084
26.21
25.6852
25.1352
24.5621
23.9678
23.3547
22.7253
22.0825
21.4295
20.7694
20.1059
19.4424
18.7827
18.1304
17.4889
16.8615
16.2508
15.6592
15.0882
14.5386
14.0105
13.5032
13.0154
12.5453
12.0908
11.6501
11.2212
10.8025
166.826
106.874
89.2934
82.2591
79.049
77.5338
76.865
76.6556
76.7162
76.9516
77.3166
77.7926
78.3755
79.0682
79.8755
80.8016
81.8476
83.0111
84.2856
85.6607
87.1226
88.6542
90.2363
91.8474
93.4649
95.0649
96.6234
98.116
99.5188
100.809
101.964
102.964
103.792
104.433
104.873
105.106
105.127
104.936
104.539
103.944
103.166
102.224
101.141
99.9407
98.653
97.3069
95.9325
94.5591
93.2144
91.9236
90.7092
89.5898
88.5809
87.6949
86.9411
86.3271
85.8591
85.5428
85.3841
85.3791
85.5197
85.8043
86.2359
86.821
87.5687
88.4909
89.6021
90.9188
92.4592
94.2429
96.2893
98.6173
101.243
104.18
107.432
110.998
114.863
118.999
123.363
127.891
132.501
137.092
141.54
145.706
149.429
152.53
154.822
156.096
156.206
155.018
152.429
148.394
142.944
136.199
128.362
119.708
110.554
101.228
92.039
83.2512
75.0685
67.6202
60.9875
55.197
50.2284
46.0288
42.5266
39.6413
37.2911
35.398
33.8903
32.7045
31.7854
31.0855
30.5651
30.191
29.9355
29.776
29.6937