/*--------------------------------*- C++ -*----------------------------------*\
  =========                 |
  \\      /  F ield         | OpenFOAM: The Open Source CFD Toolbox
   \\    /   O peration     | Website:  https://openfoam.org
    \\  /    A nd           | Version:  9
     \\/     M anipulation  |
\*---------------------------------------------------------------------------*/
FoamFile
{
    format      ascii;
    class       volScalarField;
    location    "0.24";
    object      k;
}
// * * * * * * * * * * * * * * * * * * * * * * * * * * * * * * * * * * * * * //

dimensions      [0 2 -2 0 0 0 0];

internalField   nonuniform List<scalar> 
12225
(
0.266499
0.160489
0.103912
0.0741893
0.0581134
0.0486975
0.0424836
0.0378656
0.0341346
0.0309778
0.0282463
0.0258623
0.0237856
0.0220134
0.0206424
0.0203988
0.0278368
0.11421
0.334972
0.249985
0.196456
0.164524
0.144252
0.130145
0.119409
0.110644
0.103138
0.0965164
0.0905582
0.0851297
0.0801629
0.075674
0.0719171
0.0709189
0.0838395
0.184363
0.345272
0.28575
0.239428
0.206557
0.183074
0.165676
0.152154
0.141149
0.131871
0.123866
0.116863
0.110698
0.105273
0.100593
0.0970344
0.0974466
0.116562
0.217131
0.350148
0.304862
0.265295
0.233995
0.209732
0.190756
0.175563
0.163058
0.15252
0.143496
0.135712
0.129003
0.123285
0.118604
0.115512
0.117335
0.139079
0.232828
0.353186
0.316515
0.282411
0.253507
0.229757
0.210339
0.194322
0.180912
0.169525
0.159768
0.151393
0.14426
0.138319
0.133682
0.131054
0.133885
0.155844
0.238816
0.355222
0.324172
0.294374
0.26796
0.24532
0.226146
0.209902
0.196055
0.184168
0.173929
0.165139
0.157693
0.151584
0.146987
0.144704
0.14802
0.168565
0.239207
0.356638
0.329444
0.303019
0.278913
0.257614
0.239073
0.223008
0.209079
0.19698
0.186484
0.177442
0.169791
0.163564
0.158985
0.156886
0.16021
0.178394
0.236644
0.357639
0.333171
0.309388
0.28732
0.267402
0.249696
0.23407
0.220318
0.20824
0.197679
0.188536
0.180785
0.17449
0.169906
0.167838
0.170801
0.186196
0.232901
0.358351
0.335839
0.314121
0.293804
0.275209
0.258422
0.243392
0.230001
0.218124
0.207658
0.198547
0.190794
0.184485
0.179883
0.177725
0.18009
0.192624
0.229146
0.358854
0.337753
0.317643
0.298801
0.281418
0.265562
0.251213
0.238304
0.226759
0.216519
0.207556
0.199892
0.193625
0.189007
0.186686
0.188332
0.198165
0.226085
0.359208
0.33912
0.320247
0.302626
0.286322
0.271361
0.257724
0.245372
0.234256
0.224342
0.215624
0.208132
0.201965
0.197352
0.19484
0.195742
0.203164
0.224068
0.359433
0.340005
0.321994
0.305283
0.289838
0.275636
0.262649
0.25084
0.240174
0.23063
0.222207
0.21494
0.208918
0.204342
0.201666
0.201928
0.207453
0.223246
0.359594
0.34065
0.323308
0.307344
0.292645
0.279141
0.266782
0.255529
0.245349
0.236226
0.228161
0.221184
0.21537
0.210887
0.208101
0.207809
0.211714
0.223317
0.359719
0.341159
0.324378
0.309082
0.295089
0.282283
0.270587
0.259949
0.250331
0.241713
0.234093
0.22749
0.221958
0.217626
0.214768
0.213965
0.216399
0.224389
0.359809
0.341529
0.325186
0.310446
0.297081
0.284935
0.273901
0.263908
0.254908
0.246868
0.239774
0.233629
0.228463
0.224358
0.221501
0.220284
0.221478
0.22653
0.359866
0.341775
0.325744
0.311432
0.298584
0.287017
0.276601
0.267243
0.258877
0.251456
0.244946
0.239329
0.234606
0.230812
0.228056
0.226571
0.22682
0.229643
0.359897
0.341919
0.326091
0.312077
0.299617
0.288515
0.278624
0.269837
0.262068
0.255252
0.249336
0.244276
0.240042
0.23663
0.234075
0.232492
0.23212
0.233398
0.359908
0.341985
0.326272
0.312441
0.300237
0.289462
0.279963
0.271622
0.264341
0.25804
0.252647
0.248097
0.244334
0.241318
0.23903
0.237496
0.236804
0.237142
0.359899
0.341982
0.326301
0.312539
0.300444
0.289823
0.280525
0.272429
0.265434
0.259452
0.2544
0.250202
0.246783
0.244079
0.242037
0.240623
0.239833
0.239708
0.359865
0.341873
0.326092
0.312206
0.299974
0.289215
0.27979
0.271589
0.264519
0.258495
0.253436
0.249264
0.245899
0.243267
0.241299
0.239937
0.239135
0.23887
0.359799
0.341625
0.325573
0.311345
0.298727
0.287568
0.277752
0.269187
0.261792
0.255491
0.250204
0.245855
0.24236
0.239642
0.237623
0.23623
0.235399
0.235075
0.359664
0.341097
0.324473
0.309562
0.29622
0.284349
0.273869
0.264708
0.256792
0.250048
0.244397
0.239754
0.236033
0.233147
0.23101
0.22954
0.228657
0.228287
0.359406
0.340073
0.322409
0.306354
0.29189
0.278994
0.267618
0.257696
0.24915
0.241894
0.235835
0.230875
0.226916
0.223857
0.221601
0.220052
0.219121
0.218717
0.35894
0.338241
0.318872
0.301097
0.285093
0.270913
0.2585
0.247764
0.238594
0.23087
0.224469
0.219267
0.215142
0.211978
0.20966
0.208081
0.207139
0.206732
0.358153
0.335154
0.313191
0.29306
0.275127
0.259471
0.24602
0.234571
0.224927
0.216907
0.21034
0.205063
0.200925
0.197785
0.195514
0.19399
0.193103
0.192741
0.356886
0.330114
0.304364
0.281196
0.261084
0.243986
0.229645
0.21776
0.207956
0.199946
0.193493
0.188388
0.184446
0.181504
0.179418
0.178058
0.177306
0.177047
0.3549
0.321863
0.2907
0.263855
0.241575
0.223391
0.208666
0.196807
0.187335
0.179768
0.173795
0.169163
0.16566
0.163108
0.161355
0.16027
0.159735
0.159639
0.351808
0.307739
0.268908
0.238071
0.214213
0.195845
0.181658
0.170649
0.162128
0.155533
0.150456
0.146622
0.143809
0.141839
0.140563
0.139858
0.139619
0.139743
0.345279
0.280218
0.231519
0.197591
0.173865
0.156968
0.14467
0.135553
0.128731
0.123668
0.119923
0.117224
0.115361
0.11417
0.113522
0.113312
0.113457
0.113877
0.300106
0.214234
0.158096
0.121297
0.0971073
0.0811256
0.0704487
0.0631826
0.0581494
0.0547263
0.0524514
0.0509699
0.0500609
0.0495767
0.0494137
0.0494967
0.0497682
0.0501804
0.103358
0.135254
0.154223
0.165624
0.171846
0.174251
0.173646
0.170515
0.165238
0.158898
0.153507
0.148867
0.145379
0.143807
0.144953
0.14922
0.156239
0.164848
0.173307
0.180492
0.186142
0.190806
0.195956
0.203814
0.213398
0.224334
0.236505
0.249896
0.264488
0.280227
0.297022
0.314756
0.333293
0.352492
0.37221
0.39231
0.412665
0.433159
0.453689
0.474164
0.494503
0.514638
0.534507
0.554057
0.573242
0.592019
0.610353
0.628209
0.645561
0.662381
0.678649
0.694352
0.709483
0.724048
0.73807
0.751594
0.764702
0.777519
0.79012
0.801715
0.812263
0.821718
0.830001
0.837016
0.842659
0.846818
0.849378
0.850224
0.849243
0.846328
0.841379
0.834309
0.825045
0.813536
0.799751
0.78369
0.765382
0.74489
0.722315
0.697795
0.67151
0.643679
0.614556
0.584432
0.553627
0.52248
0.491346
0.460585
0.430548
0.40157
0.373959
0.347985
0.323877
0.301811
0.281913
0.264252
0.248843
0.23565
0.224591
0.215562
0.208471
0.203516
0.199827
0.197204
0.195484
0.194516
0.194169
0.194324
0.194881
0.195754
0.196867
0.198158
0.199572
0.201062
0.202587
0.204112
0.205607
0.207045
0.208405
0.209665
0.210809
0.211822
0.21269
0.213404
0.213953
0.21433
0.214527
0.214539
0.214362
0.213993
0.21343
0.212673
0.211729
0.210607
0.209334
0.207961
0.206452
0.204774
0.20293
0.200927
0.198773
0.196479
0.194055
0.191517
0.188885
0.186202
0.183563
0.181193
0.179725
0.181462
0.192963
0.190713
0.188723
0.186593
0.187998
0.186082
0.176425
0.177219
0.181231
0.18194
0.195851
0.193731
0.179218
0.191511
0.179714
0.179346
0.183839
0.195799
0.18279
0.187718
0.191435
0.17958
0.18926
0.195168
0.195219
0.194008
0.190996
0.192155
0.188786
0.182317
0.193666
0.247133
0.278891
0.297903
0.308652
0.313992
0.31578
0.31532
0.313748
0.312552
0.311617
0.313561
0.321042
0.335916
0.358467
0.387209
0.419502
0.45276
0.482144
0.507296
0.529135
0.548656
0.566606
0.583346
0.598983
0.613637
0.627405
0.640442
0.65295
0.665158
0.6773
0.689601
0.702261
0.715454
0.72932
0.743964
0.759463
0.775865
0.793193
0.811453
0.830633
0.85071
0.871652
0.89342
0.915969
0.939251
0.963215
0.987804
1.01296
1.03861
1.06469
1.09112
1.11781
1.14466
1.17158
1.19843
1.22512
1.25151
1.27701
1.30196
1.32627
1.34974
1.37216
1.39327
1.41281
1.4305
1.44603
1.4591
1.46938
1.47656
1.48034
1.48041
1.47651
1.4684
1.45589
1.43883
1.41714
1.39082
1.35993
1.32464
1.28518
1.2419
1.19523
1.14567
1.09382
1.04033
0.985891
0.931242
0.877111
0.824209
0.773205
0.724702
0.679217
0.637167
0.598861
0.564492
0.534144
0.507793
0.485323
0.466535
0.451179
0.439047
0.429599
0.422406
0.417115
0.41341
0.411014
0.409682
0.409206
0.409403
0.410123
0.411235
0.412629
0.414212
0.415907
0.417644
0.419367
0.421026
0.422577
0.423984
0.425215
0.426242
0.427041
0.427591
0.427875
0.427878
0.427587
0.426992
0.426085
0.424859
0.423311
0.421439
0.419244
0.416726
0.413891
0.410737
0.407352
0.403705
0.399792
0.395623
0.391213
0.386578
0.381741
0.376728
0.371569
0.366307
0.361004
0.355747
0.350638
0.345521
0.337808
0.33255
0.327493
0.32298
0.321798
0.316802
0.309996
0.305616
0.300227
0.297032
0.296352
0.292638
0.286984
0.286172
0.280451
0.277814
0.278003
0.275701
0.272002
0.268569
0.265709
0.261793
0.258493
0.256261
0.252358
0.247752
0.242306
0.23842
0.232012
0.223403
0.262435
0.321043
0.359394
0.383759
0.398948
0.408198
0.413917
0.418159
0.422965
0.428881
0.437322
0.450954
0.472096
0.500586
0.534852
0.571904
0.608439
0.64179
0.67028
0.693791
0.713066
0.729097
0.742791
0.754879
0.76596
0.77656
0.78714
0.798113
0.809824
0.822551
0.836493
0.851775
0.868451
0.886514
0.905905
0.926528
0.948263
0.970976
0.994532
1.0188
1.04367
1.06904
1.09484
1.12101
1.14751
1.17433
1.20145
1.2289
1.25666
1.28476
1.3132
1.34198
1.37108
1.40048
1.43015
1.46002
1.49004
1.52011
1.55005
1.57984
1.60929
1.63818
1.66624
1.69316
1.71861
1.74223
1.76362
1.7824
1.79813
1.81039
1.81878
1.82289
1.82233
1.81677
1.8059
1.7895
1.76739
1.7395
1.70585
1.66656
1.62186
1.57211
1.51778
1.45944
1.39777
1.33357
1.26767
1.20097
1.13439
1.06885
1.00522
0.944306
0.886806
0.833307
0.784256
0.739955
0.700563
0.6661
0.636467
0.611458
0.590782
0.574095
0.56096
0.550814
0.543184
0.537659
0.533871
0.531499
0.530265
0.529931
0.530295
0.531187
0.532463
0.534003
0.535704
0.537482
0.539263
0.540983
0.54259
0.544036
0.545281
0.546292
0.547036
0.547488
0.547626
0.54743
0.546883
0.545972
0.544686
0.543017
0.540958
0.538508
0.535665
0.532432
0.528813
0.524815
0.520459
0.515793
0.510797
0.505478
0.499849
0.49393
0.487746
0.481326
0.474704
0.467925
0.461039
0.454107
0.447156
0.440045
0.432154
0.4251
0.418254
0.411734
0.406113
0.39951
0.392566
0.386337
0.380389
0.375184
0.370554
0.365415
0.36007
0.355866
0.350428
0.346087
0.342742
0.338126
0.333683
0.328985
0.323921
0.318832
0.313312
0.30731
0.300761
0.293743
0.286225
0.278796
0.270032
0.259929
0.327412
0.396031
0.442286
0.471834
0.490731
0.502993
0.511756
0.519826
0.528621
0.53902
0.553256
0.573063
0.599141
0.630627
0.665333
0.700417
0.733248
0.762048
0.786122
0.80576
0.821845
0.835461
0.847641
0.859266
0.87105
0.883548
0.897168
0.912182
0.928741
0.946886
0.966573
0.98769
1.01007
1.03353
1.05786
1.08286
1.10835
1.13415
1.16014
1.18622
1.21232
1.2384
1.26448
1.29057
1.31671
1.34298
1.36944
1.39617
1.42326
1.45078
1.4788
1.50737
1.53654
1.56632
1.59672
1.6277
1.65921
1.69116
1.72343
1.7559
1.78837
1.82058
1.85225
1.88304
1.91258
1.94046
1.96626
1.98952
2.00977
2.02652
2.03928
2.04759
2.05098
2.04904
2.04137
2.02767
2.00769
1.98127
1.94834
1.90896
1.86331
1.81169
1.75453
1.69241
1.62602
1.55617
1.48377
1.40981
1.33532
1.26136
1.18896
1.11908
1.05261
0.990292
0.932721
0.880332
0.833387
0.791982
0.756063
0.725445
0.699833
0.678843
0.662058
0.648869
0.638737
0.631181
0.625765
0.622107
0.619871
0.618767
0.61855
0.619012
0.619979
0.621304
0.622865
0.624557
0.626294
0.628
0.629611
0.631072
0.632335
0.633358
0.634104
0.634542
0.634643
0.634385
0.633745
0.632708
0.631258
0.629384
0.627078
0.624333
0.621148
0.61752
0.613454
0.608952
0.604021
0.598717
0.593033
0.586969
0.580539
0.57376
0.566657
0.55926
0.551604
0.543729
0.535681
0.527508
0.51924
0.51084
0.502201
0.493797
0.485509
0.477396
0.469587
0.461614
0.453682
0.446162
0.439063
0.432315
0.425859
0.419442
0.413167
0.407374
0.401365
0.395769
0.390515
0.384903
0.379283
0.373566
0.367513
0.361202
0.354617
0.347362
0.339551
0.331132
0.322191
0.312789
0.302538
0.291445
0.392739
0.474519
0.529678
0.565168
0.588154
0.603458
0.614788
0.624317
0.633308
0.6443
0.659172
0.678949
0.703576
0.731869
0.761863
0.791404
0.818738
0.84287
0.863635
0.881519
0.897378
0.912165
0.926749
0.941833
0.957926
0.975358
0.9943
1.01479
1.03675
1.06005
1.08448
1.10981
1.1358
1.16222
1.18885
1.21551
1.24203
1.2683
1.29425
1.31984
1.34508
1.37
1.39468
1.41919
1.44366
1.4682
1.49296
1.51805
1.54362
1.56978
1.59664
1.62429
1.6528
1.6822
1.71252
1.74373
1.77576
1.80851
1.84192
1.87584
1.91007
1.94436
1.97841
2.01188
2.04439
2.07552
2.10483
2.13184
2.15604
2.17692
2.19396
2.20664
2.21444
2.21688
2.21352
2.20396
2.18786
2.16498
2.13517
2.09838
2.05468
2.0043
1.94758
1.88502
1.81725
1.74508
1.66939
1.59121
1.51163
1.43181
1.35289
1.27599
1.20216
1.13232
1.06724
1.00751
0.953521
0.905488
0.863431
0.827212
0.796561
0.771094
0.750403
0.733864
0.720902
0.710987
0.703633
0.698402
0.694907
0.692808
0.691817
0.691689
0.692215
0.693222
0.694564
0.696119
0.697783
0.699466
0.701094
0.702601
0.703931
0.705032
0.705863
0.706385
0.706564
0.70637
0.705779
0.704768
0.703318
0.701414
0.699043
0.696197
0.692867
0.689051
0.684747
0.679958
0.674688
0.668961
0.662811
0.65623
0.649225
0.641814
0.63402
0.625869
0.617395
0.608636
0.599636
0.590439
0.581084
0.571585
0.561955
0.552353
0.54279
0.53332
0.523995
0.514729
0.505616
0.496817
0.488377
0.480222
0.472337
0.46466
0.457232
0.450149
0.443171
0.43644
0.429899
0.423312
0.416693
0.41001
0.403084
0.395865
0.388368
0.380302
0.371665
0.362391
0.352464
0.341937
0.330776
0.319033
0.455472
0.550888
0.616447
0.659261
0.687269
0.705878
0.718083
0.726199
0.733454
0.742314
0.754456
0.770648
0.790695
0.813582
0.837839
0.862002
0.884985
0.906274
0.925911
0.94434
0.962202
0.980155
0.998757
1.01841
1.03936
1.06169
1.08537
1.11027
1.13621
1.16296
1.19025
1.21785
1.24551
1.27301
1.30018
1.32686
1.35295
1.37839
1.40315
1.42727
1.45078
1.47379
1.4964
1.51877
1.54103
1.56337
1.58595
1.60894
1.6325
1.6568
1.68195
1.70808
1.73527
1.76357
1.79301
1.82357
1.85518
1.88773
1.9212
1.95546
1.99033
2.02556
2.06088
2.09594
2.1304
2.16383
2.1958
2.22582
2.25341
2.27802
2.29913
2.3162
2.32867
2.33601
2.33774
2.33338
2.32251
2.30481
2.28
2.24792
2.20854
2.16192
2.1083
2.04806
1.98173
1.90999
1.83372
1.75388
1.6716
1.58806
1.50452
1.42223
1.34238
1.26609
1.19431
1.12781
1.06716
1.0127
0.964563
0.922692
0.886866
0.856725
0.831871
0.811686
0.79558
0.782996
0.77341
0.766338
0.761346
0.758049
0.756116
0.755259
0.755239
0.75585
0.756922
0.75831
0.759891
0.761563
0.763236
0.764833
0.766286
0.767538
0.768536
0.769236
0.769596
0.76958
0.769159
0.768303
0.766989
0.765197
0.762909
0.760112
0.756794
0.752948
0.748569
0.743656
0.73821
0.732238
0.725786
0.718851
0.711436
0.703555
0.695226
0.686475
0.677334
0.667839
0.658029
0.647949
0.637644
0.627149
0.616503
0.605785
0.59504
0.584323
0.573685
0.563146
0.552772
0.542655
0.532837
0.523296
0.51404
0.505061
0.49638
0.488025
0.4799
0.472014
0.464317
0.456701
0.449102
0.441468
0.433672
0.425629
0.417303
0.408512
0.399189
0.389262
0.378676
0.367432
0.355677
0.343487
0.512129
0.621082
0.697232
0.747786
0.781188
0.80172
0.813426
0.820281
0.825452
0.83139
0.839781
0.851464
0.866458
0.884137
0.90355
0.923757
0.944079
0.964211
0.984185
1.00427
1.02482
1.04618
1.06861
1.09225
1.11712
1.14315
1.17017
1.19799
1.22635
1.255
1.28369
1.31217
1.34022
1.36767
1.39436
1.42018
1.44507
1.46901
1.49202
1.51415
1.53549
1.55618
1.57637
1.59622
1.61593
1.63569
1.6557
1.67615
1.69725
1.71916
1.74203
1.76601
1.79117
1.81761
1.84534
1.87435
1.9046
1.93599
1.96849
2.00203
2.03645
2.07154
2.10705
2.14266
2.17805
2.21283
2.24658
2.27885
2.30916
2.33699
2.36182
2.38309
2.40026
2.41276
2.42006
2.42162
2.41698
2.40567
2.38735
2.36172
2.32858
2.28787
2.23966
2.18416
2.12176
2.05301
1.97864
1.89957
1.81686
1.73172
1.64545
1.55941
1.47494
1.39333
1.31572
1.24311
1.17624
1.11564
1.06158
1.01409
0.973039
0.938105
0.908903
0.884841
0.865334
0.849816
0.837741
0.828589
0.821888
0.817211
0.814181
0.812475
0.811815
0.811963
0.812721
0.81392
0.815418
0.817093
0.81884
0.82057
0.822204
0.823672
0.824915
0.825877
0.826512
0.826775
0.82663
0.826042
0.824982
0.823424
0.821345
0.818727
0.815555
0.811814
0.807498
0.8026
0.797118
0.791053
0.784434
0.777282
0.769593
0.761375
0.752644
0.743424
0.733741
0.72363
0.71313
0.702283
0.691135
0.679732
0.668118
0.656353
0.644492
0.632594
0.620717
0.608914
0.597248
0.585787
0.574579
0.56364
0.552994
0.542654
0.532639
0.522962
0.51358
0.504473
0.495598
0.486882
0.478254
0.469643
0.460945
0.452072
0.44295
0.433452
0.42349
0.412987
0.40189
0.390173
0.377975
0.365435
0.560948
0.681389
0.767214
0.824796
0.861526
0.883783
0.896337
0.903008
0.906945
0.910656
0.915949
0.923887
0.934824
0.948558
0.964573
0.98229
1.00125
1.02121
1.04209
1.06396
1.08693
1.11108
1.13644
1.16296
1.19053
1.21897
1.24804
1.27751
1.30709
1.33654
1.36561
1.39407
1.42173
1.44842
1.47403
1.49848
1.52172
1.54377
1.56466
1.58449
1.60337
1.62145
1.63891
1.65594
1.67276
1.68958
1.70662
1.72411
1.74225
1.76124
1.78124
1.8024
1.82484
1.84865
1.87386
1.90049
1.9285
1.95781
1.98841
2.02025
2.05322
2.08716
2.12184
2.15701
2.19234
2.22752
2.26215
2.29582
2.32808
2.35847
2.38646
2.41154
2.43315
2.45074
2.46372
2.47156
2.47369
2.46959
2.4588
2.4409
2.41554
2.3825
2.34165
2.29303
2.23681
2.17339
2.10332
2.02738
1.94654
1.86196
1.77495
1.68693
1.59938
1.51374
1.43137
1.35347
1.28101
1.21473
1.15505
1.1021
1.05592
1.01619
0.982557
0.954473
0.931372
0.912712
0.897938
0.886505
0.877909
0.871689
0.867428
0.864763
0.863377
0.863002
0.863407
0.864399
0.865812
0.867504
0.869354
0.871257
0.873122
0.874868
0.876423
0.877726
0.878718
0.87935
0.879576
0.879356
0.878654
0.877439
0.875681
0.873358
0.870448
0.866934
0.862803
0.858044
0.852653
0.846626
0.83997
0.832724
0.824884
0.816453
0.807442
0.797872
0.787765
0.777154
0.766075
0.754568
0.742681
0.730459
0.717951
0.705212
0.692301
0.679281
0.666216
0.65317
0.640209
0.627401
0.614799
0.602445
0.590375
0.57862
0.567204
0.556142
0.545418
0.535015
0.524895
0.515004
0.505275
0.495633
0.485987
0.476246
0.466323
0.456111
0.445518
0.434467
0.422908
0.410825
0.398283
0.385424
0.602072
0.729573
0.821275
0.883362
0.924183
0.949717
0.964571
0.972507
0.976672
0.979633
0.983333
0.98907
0.997518
1.00884
1.02285
1.03924
1.05767
1.07789
1.09972
1.12307
1.14785
1.17397
1.20131
1.22969
1.2589
1.2887
1.31883
1.34902
1.37899
1.40849
1.43727
1.46513
1.49188
1.51738
1.54153
1.56426
1.58556
1.60545
1.62398
1.64127
1.65744
1.67267
1.68714
1.70107
1.71469
1.72823
1.74194
1.75604
1.77077
1.78633
1.80291
1.82067
1.83975
1.86026
1.88225
1.90576
1.93078
1.95725
1.98512
2.01444
2.04511
2.07702
2.10997
2.14376
2.17812
2.21275
2.24734
2.28151
2.31488
2.347
2.37742
2.40564
2.43114
2.45339
2.4718
2.4858
2.49481
2.49824
2.49553
2.48615
2.46962
2.44554
2.41359
2.3736
2.32554
2.26955
2.206
2.13547
2.05877
1.97696
1.8913
1.80323
1.7143
1.62613
1.54025
1.45807
1.38084
1.30952
1.24479
1.18683
1.13569
1.09123
1.05315
1.02099
0.994211
0.972289
0.954664
0.940783
0.930138
0.922239
0.916628
0.912907
0.910722
0.909769
0.909787
0.910554
0.91188
0.913602
0.915579
0.917692
0.919833
0.92191
0.92384
0.92555
0.926974
0.928054
0.928736
0.928973
0.928723
0.927947
0.926611
0.924686
0.922146
0.918968
0.915135
0.910631
0.905446
0.899574
0.893009
0.885787
0.877913
0.869386
0.860213
0.850409
0.839994
0.828997
0.817451
0.805395
0.792873
0.779931
0.766618
0.752989
0.739104
0.725029
0.710832
0.696583
0.682354
0.668214
0.654228
0.640452
0.626938
0.613728
0.600859
0.588355
0.576219
0.564445
0.553008
0.541866
0.530962
0.520225
0.509572
0.498915
0.488163
0.477215
0.465981
0.454383
0.442372
0.429931
0.417107
0.403939
0.621398
0.756355
0.854947
0.923187
0.969273
0.999226
1.01767
1.02832
1.03432
1.03821
1.04205
1.0473
1.05487
1.06522
1.07842
1.09434
1.11275
1.1334
1.15604
1.18047
1.20649
1.23387
1.2624
1.29183
1.3219
1.35232
1.38281
1.41308
1.44286
1.4719
1.49996
1.52683
1.55235
1.57637
1.59882
1.61962
1.63878
1.65632
1.67232
1.68688
1.70016
1.71234
1.72361
1.73421
1.74437
1.75435
1.7644
1.77478
1.78573
1.79746
1.81019
1.8241
1.83935
1.85605
1.8743
1.89414
1.91559
1.93863
1.9632
1.98936
2.01706
2.04623
2.07671
2.10833
2.14088
2.17411
2.20776
2.24152
2.27504
2.30797
2.33989
2.37037
2.39893
2.42507
2.44824
2.46787
2.48337
2.49411
2.49948
2.49885
2.49162
2.47724
2.45521
2.42515
2.38678
2.34
2.28493
2.2219
2.15152
2.07465
1.99246
1.90633
1.81788
1.72881
1.64086
1.55562
1.47492
1.3996
1.33041
1.2678
1.212
1.16299
1.12057
1.08435
1.05388
1.02865
1.00812
0.99173
0.97895
0.969266
0.962206
0.957349
0.9543
0.952723
0.952323
0.95285
0.954087
0.955849
0.957975
0.960328
0.962784
0.965239
0.967598
0.969775
0.971697
0.973295
0.974509
0.975282
0.975566
0.975317
0.974494
0.973061
0.970988
0.968247
0.964815
0.960672
0.955803
0.950197
0.943847
0.936759
0.928964
0.920456
0.911236
0.901314
0.890709
0.879442
0.867545
0.855053
0.842007
0.828453
0.814437
0.800015
0.785247
0.770199
0.754943
0.739553
0.724103
0.708671
0.693328
0.678143
0.663181
0.648498
0.634144
0.620154
0.606553
0.593346
0.580524
0.56806
0.555908
0.544009
0.532288
0.520661
0.509038
0.497322
0.485423
0.473262
0.460787
0.447973
0.434845
0.421409
0.624403
0.765971
0.872886
0.947457
0.998921
1.0338
1.05671
1.07125
1.08044
1.08677
1.0923
1.09858
1.10669
1.11728
1.13063
1.14674
1.16549
1.18665
1.20995
1.23514
1.26193
1.29006
1.31922
1.34915
1.37952
1.41005
1.44043
1.47038
1.49961
1.52786
1.55492
1.58057
1.60465
1.62703
1.64761
1.66635
1.68324
1.69832
1.71167
1.7234
1.73366
1.74266
1.75059
1.75769
1.76424
1.77048
1.77669
1.78313
1.79007
1.79774
1.80638
1.81618
1.82731
1.83992
1.85411
1.86997
1.88752
1.90679
1.92769
1.9503
1.97459
2.00052
2.02797
2.0568
2.08685
2.11792
2.1498
2.18225
2.215
2.24773
2.28012
2.3118
2.34235
2.37133
2.39824
2.42255
2.44367
2.461
2.47387
2.48162
2.48355
2.47899
2.46728
2.44783
2.42016
2.38389
2.33885
2.28509
2.22295
2.15307
2.0764
1.99424
1.90814
1.81991
1.73164
1.64529
1.5623
1.48387
1.41096
1.34427
1.28422
1.23098
1.18443
1.1443
1.11022
1.08173
1.05829
1.03937
1.02442
1.01292
1.00438
0.998326
0.994361
0.992123
0.991281
0.991554
0.992701
0.994512
0.996805
0.999424
1.00223
1.0051
1.00794
1.01063
1.01311
1.01529
1.0171
1.01848
1.01937
1.01973
1.0195
1.01864
1.01712
1.01491
1.01197
1.00829
1.00384
0.998605
0.992575
0.985739
0.978136
0.969758
0.960606
0.950683
0.940003
0.928586
0.916457
0.903648
0.890197
0.876147
0.861542
0.846437
0.83089
0.814969
0.798746
0.782295
0.765698
0.749033
0.732382
0.715825
0.699435
0.683283
0.667432
0.651935
0.636829
0.622141
0.607878
0.594029
0.580564
0.567437
0.554584
0.54193
0.529387
0.516862
0.504266
0.491516
0.478551
0.465337
0.451873
0.438154
0.537988
0.747343
0.876785
0.959153
1.01596
1.05589
1.08372
1.10287
1.11619
1.12606
1.13446
1.14297
1.15275
1.16455
1.17879
1.19563
1.215
1.23676
1.26063
1.28636
1.31364
1.34216
1.3716
1.40165
1.43199
1.46231
1.49229
1.52165
1.5501
1.5774
1.60329
1.62759
1.65013
1.67077
1.68942
1.70604
1.72062
1.73319
1.74385
1.7527
1.75991
1.76568
1.77022
1.7738
1.77667
1.77912
1.78144
1.7839
1.78679
1.79036
1.79486
1.8005
1.80748
1.81595
1.82604
1.83784
1.8514
1.86676
1.8839
1.9028
1.92347
1.94588
1.96993
1.99553
2.02256
2.05085
2.08026
2.1106
2.14167
2.17323
2.20502
2.23676
2.2681
2.29868
2.32806
2.35578
2.38129
2.40401
2.4233
2.43848
2.4488
2.45351
2.45185
2.44304
2.4264
2.40132
2.36732
2.32415
2.27182
2.21067
2.1414
2.06509
1.98322
1.89805
1.81158
1.72553
1.64153
1.56105
1.48532
1.41529
1.35158
1.29455
1.24421
1.20042
1.16291
1.13127
1.10502
1.08361
1.06653
1.05322
1.04317
1.03592
1.03103
1.02811
1.0268
1.02682
1.02787
1.02974
1.03222
1.03513
1.03831
1.04164
1.04498
1.04825
1.05132
1.05413
1.0566
1.05864
1.06021
1.06124
1.06167
1.06147
1.06059
1.05899
1.05663
1.0535
1.04956
1.0448
1.03919
1.03272
1.02541
1.01727
1.0083
0.998492
0.987856
0.976408
0.964169
0.951166
0.937435
0.923012
0.907942
0.892275
0.876069
0.859389
0.842306
0.824897
0.807244
0.789431
0.771545
0.753672
0.735899
0.718307
0.700973
0.683965
0.667339
0.65114
0.635393
0.620106
0.60527
0.590854
0.576807
0.563066
0.549549
0.536168
0.522833
0.509458
0.495971
0.482323
0.46849
0.454446
0.600099
0.758101
0.877589
0.962026
1.02318
1.06793
1.10072
1.12478
1.14277
1.15689
1.16901
1.18064
1.19292
1.20669
1.22244
1.24044
1.26072
1.28318
1.30762
1.33378
1.36137
1.39008
1.41957
1.44954
1.47964
1.50956
1.53899
1.56763
1.5952
1.62144
1.64612
1.66902
1.68999
1.70889
1.72562
1.74013
1.75242
1.76252
1.77052
1.77655
1.78075
1.78335
1.78458
1.78469
1.78398
1.78273
1.78126
1.77987
1.77884
1.77846
1.77899
1.78065
1.78365
1.78816
1.79431
1.80221
1.81192
1.8235
1.83693
1.85216
1.86919
1.88798
1.90848
1.93059
1.95423
1.9793
2.00568
2.03325
2.06186
2.09137
2.12157
2.15226
2.18319
2.21407
2.24455
2.27422
2.30263
2.32925
2.35348
2.37466
2.39206
2.4049
2.41233
2.41349
2.40752
2.3936
2.37099
2.33912
2.29765
2.24656
2.18621
2.11743
2.04211
1.96206
1.87899
1.79473
1.71111
1.62983
1.55234
1.47984
1.4132
1.35295
1.29927
1.25219
1.21153
1.17696
1.14805
1.12428
1.10513
1.09006
1.07856
1.07014
1.06433
1.06073
1.05897
1.05872
1.05969
1.06162
1.06429
1.06751
1.0711
1.0749
1.0788
1.08266
1.08638
1.08987
1.09303
1.0958
1.09809
1.09985
1.10101
1.10153
1.10135
1.10043
1.09874
1.09624
1.0929
1.08869
1.0836
1.07761
1.0707
1.06291
1.05422
1.04464
1.03417
1.02281
1.01058
0.997511
0.983626
0.968961
0.953556
0.937458
0.920722
0.90341
0.885592
0.867344
0.848747
0.82989
0.810862
0.791757
0.772669
0.753691
0.734911
0.716414
0.698273
0.680551
0.663294
0.646533
0.630277
0.614515
0.599216
0.584327
0.569779
0.555489
0.541367
0.527323
0.513275
0.499155
0.484917
0.470514
0.618816
0.762921
0.874853
0.958855
1.02267
1.07151
1.10908
1.1382
1.16121
1.18009
1.19652
1.21189
1.22732
1.24363
1.26139
1.28093
1.30237
1.32568
1.35073
1.37731
1.40514
1.43394
1.46337
1.49314
1.5229
1.55234
1.58115
1.60903
1.63569
1.66087
1.68434
1.70588
1.72533
1.74255
1.75743
1.76992
1.78003
1.78777
1.79324
1.79656
1.79791
1.7975
1.79557
1.79241
1.78832
1.78361
1.7786
1.77361
1.76896
1.76494
1.76182
1.75984
1.75921
1.76011
1.76266
1.76699
1.77315
1.7812
1.79114
1.80287
1.81638
1.83163
1.84855
1.86708
1.88717
1.90873
1.9317
1.95601
1.98158
2.00831
2.03609
2.06477
2.0942
2.12417
2.1544
2.18458
2.21434
2.24323
2.27071
2.29618
2.31896
2.33828
2.3533
2.36311
2.36675
2.36324
2.35164
2.33108
2.30087
2.26061
2.21026
2.15093
2.08385
2.01043
1.93233
1.85143
1.76966
1.6889
1.61083
1.53688
1.46814
1.40537
1.34893
1.29902
1.25559
1.2184
1.18706
1.16112
1.14005
1.12334
1.11046
1.10091
1.09423
1.08998
1.08779
1.08729
1.08818
1.09019
1.09307
1.09661
1.10061
1.10493
1.10939
1.11388
1.11828
1.12248
1.12638
1.12991
1.13297
1.13551
1.13746
1.13875
1.13934
1.13917
1.13821
1.13641
1.13375
1.13019
1.1257
1.12027
1.11387
1.10652
1.09823
1.08899
1.07879
1.06763
1.05554
1.04253
1.02862
1.01385
0.998241
0.981849
0.96472
0.946914
0.928496
0.909541
0.890131
0.870351
0.850297
0.830064
0.809753
0.789466
0.769304
0.749363
0.729735
0.710501
0.691728
0.67347
0.655758
0.638604
0.621997
0.605902
0.590263
0.575005
0.560042
0.545279
0.530624
0.515992
0.501311
0.486515
0.619284
0.757734
0.866092
0.949896
1.01587
1.06836
1.11048
1.14463
1.1728
1.19669
1.21778
1.23731
1.25631
1.27559
1.29573
1.31712
1.33995
1.36428
1.39004
1.41706
1.44513
1.47399
1.50333
1.53285
1.56225
1.59119
1.61938
1.64651
1.67229
1.69648
1.71881
1.73909
1.75712
1.77278
1.78596
1.79659
1.80467
1.81024
1.81337
1.81421
1.81293
1.80975
1.80495
1.7988
1.79163
1.78378
1.77558
1.76738
1.7595
1.75225
1.74591
1.74072
1.7369
1.73462
1.73401
1.73517
1.73817
1.74303
1.74977
1.75827
1.76847
1.78033
1.79377
1.80876
1.82525
1.8432
1.86257
1.88333
1.90546
1.92891
1.95365
1.97959
2.00665
2.03469
2.06353
2.09294
2.12262
2.15219
2.18123
2.20919
2.23548
2.25938
2.2801
2.29675
2.30835
2.31386
2.31217
2.3022
2.28295
2.25362
2.21428
2.16536
2.10759
2.04211
1.97043
1.89438
1.81592
1.73706
1.65966
1.58536
1.51548
1.451
1.39248
1.34031
1.29458
1.25516
1.22172
1.19385
1.17107
1.15287
1.13874
1.12816
1.12068
1.11584
1.11324
1.11253
1.11337
1.11546
1.11856
1.12244
1.12688
1.13171
1.13677
1.14191
1.147
1.15194
1.15662
1.16093
1.16481
1.16817
1.17094
1.17305
1.17446
1.1751
1.17493
1.1739
1.17198
1.16914
1.16533
1.16055
1.15476
1.14795
1.14015
1.13135
1.12153
1.11069
1.09886
1.08603
1.07222
1.05747
1.0418
1.02526
1.00788
0.989723
0.970851
0.951334
0.931251
0.910688
0.889738
0.8685
0.847081
0.825586
0.804127
0.782813
0.761751
0.741038
0.720764
0.701005
0.681816
0.663235
0.645272
0.627915
0.611125
0.594838
0.578975
0.563437
0.548124
0.532934
0.517772
0.502551
0.610641
0.745209
0.851551
0.935646
1.00379
1.05986
1.10648
1.14569
1.17913
1.20825
1.23428
1.25831
1.28125
1.30387
1.32673
1.35027
1.37474
1.40027
1.42685
1.4544
1.48275
1.51168
1.54093
1.57022
1.59924
1.6277
1.65529
1.68171
1.70668
1.72993
1.75122
1.77034
1.78709
1.80133
1.81295
1.82189
1.82813
1.83171
1.83271
1.83128
1.8276
1.82191
1.81448
1.80562
1.79567
1.78498
1.77393
1.76285
1.7521
1.74199
1.73281
1.72481
1.71819
1.71311
1.7097
1.70803
1.70817
1.71013
1.71393
1.71944
1.72656
1.73521
1.74533
1.75689
1.76984
1.78418
1.79989
1.81699
1.83548
1.85538
1.87669
1.89941
1.92349
1.94887
1.97544
2.00305
2.03146
2.0604
2.08949
2.1183
2.14629
2.17286
2.19728
2.21874
2.23633
2.249
2.25562
2.25495
2.24576
2.22725
2.19899
2.16088
2.11322
2.05681
1.99289
1.92315
1.84949
1.77396
1.69857
1.62512
1.55516
1.48983
1.42997
1.37618
1.32867
1.28744
1.25225
1.22274
1.19848
1.17898
1.16373
1.15224
1.14403
1.13866
1.13572
1.13482
1.13563
1.13784
1.14118
1.1454
1.15029
1.15565
1.16132
1.16712
1.17294
1.17865
1.18412
1.18926
1.19398
1.19819
1.20182
1.2048
1.20707
1.20857
1.20924
1.20904
1.20793
1.20587
1.20282
1.19876
1.19365
1.18748
1.18027
1.17199
1.16265
1.15224
1.14076
1.12823
1.11464
1.10004
1.08443
1.06786
1.05036
1.03199
1.0128
0.992854
0.972233
0.951018
0.929301
0.907181
0.884766
0.862167
0.839502
0.81689
0.79445
0.772298
0.750544
0.729283
0.7086
0.688555
0.669186
0.650506
0.632495
0.615107
0.598271
0.58189
0.565856
0.550052
0.534362
0.518674
0.597561
0.729064
0.834086
0.918703
0.988906
1.04821
1.09891
1.14273
1.18103
1.21501
1.2457
1.27402
1.30078
1.32668
1.35229
1.37803
1.40421
1.43101
1.4585
1.48664
1.51532
1.54438
1.57359
1.6027
1.63144
1.65951
1.68662
1.71248
1.7368
1.75932
1.7798
1.798
1.81375
1.82688
1.83728
1.84488
1.84967
1.85168
1.85099
1.84775
1.84214
1.83442
1.82487
1.81382
1.80162
1.78864
1.77526