/*--------------------------------*- C++ -*----------------------------------*\
  =========                 |
  \\      /  F ield         | OpenFOAM: The Open Source CFD Toolbox
   \\    /   O peration     | Website:  https://openfoam.org
    \\  /    A nd           | Version:  9
     \\/     M anipulation  |
\*---------------------------------------------------------------------------*/
FoamFile
{
    format      ascii;
    class       volScalarField;
    location    "0.24";
    object      nut;
}
// * * * * * * * * * * * * * * * * * * * * * * * * * * * * * * * * * * * * * //

dimensions      [0 2 -1 0 0 0 0];

internalField   nonuniform List<scalar> 
12225
(
3.04786e-05
1.83547e-05
1.18845e-05
8.48536e-06
6.6472e-06
5.57097e-06
4.8612e-06
4.33404e-06
3.90814e-06
3.54736e-06
3.23443e-06
2.96028e-06
2.72036e-06
2.51472e-06
2.35529e-06
2.32655e-06
3.14505e-06
1.26823e-05
0.000163254
0.000102249
8.23772e-05
7.32201e-05
6.80307e-05
6.43822e-05
6.12458e-05
5.82933e-05
5.54793e-05
5.28321e-05
5.03862e-05
4.81758e-05
4.62483e-05
4.47075e-05
4.38656e-05
4.47873e-05
4.65935e-05
6.32457e-05
0.00033951
0.00022101
0.000179063
0.000157881
0.000145016
0.000135997
0.00012874
0.000122324
0.000116418
0.000110953
0.000105968
0.000101547
9.7818e-05
9.50012e-05
9.36069e-05
9.44851e-05
9.46436e-05
0.000110076
0.000503741
0.000350136
0.000285555
0.000250457
0.000228266
0.00021258
0.000200284
0.000189809
0.000180422
0.000171831
0.00016398
0.000156949
0.000150906
0.000146132
0.000143051
0.000141242
0.000135831
0.000147231
0.000628841
0.000471847
0.00039191
0.000344686
0.000313484
0.00029099
0.000273413
0.000258684
0.000245704
0.000233934
0.000223174
0.000213439
0.000204884
0.000197765
0.000192185
0.000186295
0.000174428
0.000178902
0.000714239
0.000575859
0.000490871
0.000435748
0.000397377
0.000368897
0.000346409
0.000327611
0.000311168
0.000296345
0.000282799
0.00027045
0.000259394
0.000249773
0.000241249
0.00023081
0.000212607
0.000208421
0.000768897
0.000658339
0.000577553
0.000519728
0.000477021
0.000444149
0.000417674
0.000395379
0.000375868
0.000358303
0.000342238
0.000327505
0.000314105
0.000302011
0.000290426
0.000275561
0.00025165
0.000238146
0.000802496
0.000719926
0.000649463
0.000593774
0.00054993
0.000514731
0.000485623
0.000460747
0.000438824
0.000419025
0.000400862
0.000384101
0.000368645
0.000354275
0.000339794
0.000321018
0.00029237
0.00026985
0.000822616
0.000763696
0.000706231
0.000656268
0.000614241
0.000578907
0.000548756
0.000522463
0.000499006
0.000477664
0.000457973
0.000439669
0.000422572
0.000406283
0.000389314
0.000367402
0.000335221
0.000304843
0.000834464
0.000793553
0.000749057
0.000706813
0.000668863
0.000635377
0.00060579
0.000579355
0.000555382
0.000533328
0.000512809
0.000493567
0.000475363
0.00045766
0.000438808
0.000414703
0.000380335
0.000343932
0.000841369
0.000813239
0.00078006
0.000746044
0.000713519
0.000683394
0.000655782
0.000630436
0.000607002
0.000585139
0.000564575
0.000545091
0.000526416
0.00050793
0.000487943
0.000462675
0.000427505
0.000387317
0.000845043
0.000824811
0.000799866
0.000772843
0.000745681
0.000719457
0.000694614
0.000671221
0.00064917
0.000628296
0.00060843
0.0005894
0.000570934
0.000552383
0.000532107
0.000506694
0.000471895
0.00043015
0.00084731
0.000832502
0.000813952
0.000793037
0.000771101
0.0007491
0.000727586
0.00070681
0.000686841
0.000667652
0.00064917
0.000631273
0.000613703
0.000595823
0.000576128
0.000551659
0.000518669
0.000477757
0.000848807
0.000837926
0.000824561
0.000809179
0.000792491
0.000775155
0.000757656
0.000740298
0.000723248
0.000706575
0.000690283
0.000674296
0.000658386
0.000641968
0.000623738
0.00060126
0.00057137
0.000533355
0.000849715
0.000841411
0.00083182
0.000820922
0.000808945
0.000796209
0.000783022
0.000769626
0.00075619
0.000742817
0.000729543
0.000716321
0.000702956
0.000688947
0.000673236
0.000653938
0.000628535
0.000595633
0.000850218
0.000843434
0.000836285
0.000828595
0.000820338
0.000811588
0.000802468
0.000793102
0.000783596
0.000774019
0.000764395
0.000754675
0.000744687
0.000734024
0.000721889
0.000706919
0.000687266
0.000661427
0.000850467
0.000844478
0.000838715
0.000833019
0.000827298
0.00082152
0.000815693
0.000809847
0.00080401
0.000798194
0.000792379
0.000786494
0.000780374
0.0007737
0.000765903
0.000756075
0.000742977
0.000725384
0.000850566
0.000844919
0.000839801
0.000835115
0.000830795
0.000826805
0.000823132
0.000819773
0.000816719
0.000813948
0.000811407
0.000809005
0.000806583
0.000803894
0.000800546
0.000795971
0.000789414
0.00078006
0.000850554
0.000844908
0.000839839
0.000835289
0.000831241
0.000827712
0.000824735
0.000822348
0.000820572
0.000819403
0.000818801
0.000818683
0.000818917
0.000819313
0.000819604
0.000819442
0.000818389
0.00081596
0.000850355
0.000844136
0.000838146
0.00083237
0.000826896
0.000821874
0.000817473
0.000813848
0.000811113
0.000809329
0.000808498
0.000808565
0.000809419
0.000810897
0.000812784
0.000814812
0.000816666
0.000817995
0.0008498
0.000841998
0.000833604
0.000824841
0.000816102
0.000807817
0.000800364
0.000794034
0.000789021
0.000785421
0.000783246
0.000782432
0.000782856
0.000784344
0.000786684
0.000789625
0.000792889
0.000796156
0.000848289
0.000836487
0.000822669
0.000807928
0.000793356
0.0007798
0.000767825
0.000757761
0.000749766
0.000743866
0.000739993
0.000738007
0.000737717
0.000738898
0.000741298
0.00074465
0.000748663
0.000753008
0.000844386
0.000823552
0.000799343
0.000774872
0.000752114
0.000732092
0.000715191
0.000701472
0.000690824
0.00068305
0.000677903
0.000675107
0.00067437
0.000675392
0.000677872
0.000681512
0.000686001
0.000690988
0.000834775
0.000795939
0.000755202
0.000718113
0.000686635
0.000660975
0.000640495
0.000624588
0.00061266
0.000604191
0.000598724
0.000595842
0.000595164
0.000596335
0.000599023
0.000602914
0.000607696
0.000613007
0.000812289
0.000742747
0.000681551
0.000632885
0.000595408
0.00056697
0.000545813
0.000530162
0.000518853
0.000511111
0.000506338
0.000504047
0.000503825
0.000505311
0.000508183
0.000512148
0.000516919
0.000522158
0.000762958
0.000651549
0.000573529
0.000519938
0.000482465
0.000455905
0.000437048
0.000423958
0.000414904
0.000408954
0.000405506
0.000404105
0.000404384
0.000406038
0.000408802
0.000412438
0.000416717
0.000421356
0.00066421
0.000515481
0.000435289
0.000387317
0.000356496
0.00033595
0.00032201
0.000312612
0.000306601
0.000302784
0.000300693
0.000300001
0.000300457
0.000301856
0.000304023
0.0003068
0.000310033
0.000313521
0.000493096
0.000344341
0.000282171
0.000248755
0.000228681
0.000216034
0.000207813
0.000202404
0.00019902
0.00019693
0.000195731
0.000195273
0.000195445
0.000196156
0.00019732
0.000198858
0.000200688
0.000202695
0.000262106
0.00017104
0.000137751
0.000120667
0.000110853
0.000104981
0.000101267
9.87834e-05
9.70977e-05
9.59735e-05
9.51652e-05
9.46598e-05
9.44392e-05
9.44784e-05
9.47476e-05
9.52145e-05
9.58445e-05
9.6592e-05
5.9632e-05
4.25689e-05
3.14141e-05
2.41017e-05
1.92939e-05
1.6115e-05
1.39879e-05
1.2536e-05
1.15252e-05
1.08302e-05
1.03635e-05
1.00551e-05
9.86187e-06
9.75472e-06
9.71327e-06
9.72257e-06
9.77108e-06
9.84903e-06
3.09163e-05
4.41526e-05
4.74343e-05
4.9334e-05
5.03873e-05
5.08554e-05
5.08786e-05
5.05332e-05
4.98621e-05
4.89296e-05
4.81442e-05
4.74613e-05
4.69308e-05
4.66658e-05
4.67975e-05
4.74066e-05
4.84581e-05
4.97993e-05
5.11657e-05
5.2354e-05
5.32877e-05
5.39828e-05
5.45223e-05
5.5412e-05
5.65782e-05
5.79201e-05
5.94012e-05
6.10117e-05
6.27433e-05
6.45824e-05
6.65106e-05
6.85067e-05
7.05484e-05
7.26143e-05
7.4685e-05
7.67436e-05
7.87761e-05
8.0771e-05
8.27197e-05
8.46155e-05
8.64535e-05
8.82306e-05
8.99446e-05
9.15942e-05
9.3179e-05
9.4699e-05
9.61544e-05
9.75458e-05
9.8874e-05
0.00010014
0.000101345
0.00010249
0.000103577
0.000104608
0.000105587
0.000106517
0.000107405
0.000108258
0.000109115
0.0001099
0.00011061
0.000111247
0.000111808
0.000112288
0.000112682
0.000112985
0.000113191
0.000113292
0.000113282
0.000113154
0.0001129
0.000112513
0.000111985
0.00011131
0.000110481
0.000109492
0.000108338
0.000107015
0.000105519
0.00010385
0.000102009
9.9998e-05
9.78228e-05
9.54919e-05
9.30164e-05
9.04112e-05
8.76944e-05
8.48878e-05
8.20166e-05
7.91091e-05
7.61962e-05
7.33112e-05
7.04884e-05
6.77629e-05
6.51691e-05
6.27399e-05
6.05048e-05
5.84886e-05
5.67091e-05
5.51779e-05
5.38966e-05
5.29534e-05
5.22096e-05
5.16383e-05
5.12167e-05
5.09224e-05
5.07347e-05
5.06343e-05
5.06047e-05
5.0631e-05
5.07008e-05
5.08034e-05
5.09297e-05
5.10719e-05
5.12236e-05
5.13791e-05
5.15338e-05
5.16837e-05
5.18254e-05
5.1956e-05
5.20731e-05
5.21746e-05
5.22586e-05
5.23237e-05
5.23685e-05
5.23919e-05
5.2393e-05
5.23708e-05
5.23247e-05
5.2254e-05
5.21581e-05
5.20364e-05
5.18884e-05
5.17138e-05
5.15131e-05
5.12961e-05
5.10709e-05
5.08226e-05
5.05509e-05
5.02563e-05
4.99392e-05
4.96007e-05
4.92417e-05
4.88638e-05
4.84695e-05
4.80652e-05
4.76657e-05
4.73135e-05
4.71669e-05
4.78333e-05
4.9128e-05
4.86589e-05
4.79836e-05
4.75238e-05
0.000216362
0.000211528
4.24552e-05
4.22153e-05
4.43643e-05
4.46242e-05
0.00022111
0.000216234
4.30537e-05
0.000211487
4.18129e-05
4.12939e-05
0.000197418
0.000211033
0.000193565
0.000201707
0.000203394
0.000186804
0.000198858
0.000202693
0.000201331
0.000198529
0.000194325
0.000193055
0.00018844
0.000180932
5.85629e-05
0.0001262
0.000181422
0.000222898
0.000252006
0.000270761
0.000281217
0.000285257
0.000284486
0.000280131
0.000271066
0.000262837
0.000259069
0.000261304
0.000268898
0.000279672
0.00029092
0.000300363
0.000306792
0.000310296
0.000311583
0.000311472
0.000310623
0.000309569
0.000308761
0.000308438
0.00030869
0.000309573
0.000311127
0.000313395
0.000316417
0.000320228
0.000324863
0.000330348
0.000336707
0.000343954
0.0003521
0.000361149
0.000371101
0.000381953
0.0003937
0.000406334
0.000419847
0.00043423
0.000449471
0.000465557
0.000482469
0.000500183
0.000518663
0.000537862
0.000557711
0.000578118
0.000598958
0.000620063
0.000641213
0.000662121
0.000682429
0.000701729
0.000718842
0.000735778
0.000752716
0.000769609
0.000786378
0.000802929
0.00081916
0.000834958
0.000850202
0.000864766
0.000878515
0.000891311
0.000903011
0.000913473
0.000922555
0.000930119
0.000936031
0.000940168
0.000942417
0.000942681
0.000940878
0.000936951
0.000930863
0.000922607
0.000912202
0.0008997
0.000885182
0.000868761
0.000850579
0.000830804
0.000809624
0.000787244
0.000763877
0.000739742
0.000715062
0.00069007
0.000665017
0.000640185
0.000615893
0.00059249
0.000570312
0.000549614
0.00053047
0.000513003
0.000498027
0.000485531
0.000475335
0.000467196
0.000460854
0.000456057
0.000452567
0.000450176
0.000448697
0.000447971
0.00044786
0.000448248
0.000449034
0.00045013
0.000451464
0.000452971
0.000454595
0.000456288
0.000458007
0.000459715
0.00046138
0.000462971
0.000464462
0.000465831
0.000467055
0.000468113
0.000468985
0.00046965
0.000470084
0.000470257
0.000470133
0.000469656
0.000468756
0.000467314
0.000465709
0.000463896
0.000461842
0.000459535
0.000456973
0.000454155
0.000451083
0.000447756
0.000444164
0.000440277
0.000436032
0.000431386
0.000426513
0.000421388
0.000403999
0.000397969
0.000391387
0.000390333
0.0004412
0.000427291
0.000362161
0.000356827
0.000350092
0.000352613
0.000442061
0.000428874
0.000338347
0.000417487
0.000328828
0.000325235
0.000381975
0.000433909
0.000373069
0.000403617
0.000420932
0.000357102
0.000412512
0.000440304
0.000443172
0.000439192
0.000430953
0.000427393
0.000417341
0.000399563
7.97783e-05
0.000176444
0.000265011
0.000336186
0.000389497
0.00042653
0.000449534
0.000461078
0.000463905
0.000459071
0.000449739
0.00044067
0.000435744
0.000437087
0.000443612
0.000452956
0.000462649
0.00047093
0.000477056
0.000481094
0.000483653
0.00048554
0.000487506
0.000490165
0.000493977
0.000499261
0.000506232
0.000515039
0.000525783
0.000538524
0.000553283
0.000570046
0.000588768
0.000609373
0.000631762
0.000655818
0.000681415
0.000708419
0.000736698
0.000766127
0.000796587
0.000827973
0.000860189
0.000893152
0.000926785
0.000961017
0.000995779
0.001031
0.00106659
0.00110247
0.00113851
0.00117459
0.00121056
0.00124622
0.00128139
0.00131585
0.00134939
0.00138182
0.00141328
0.00144454
0.00147567
0.00150659
0.00153716
0.0015672
0.00159653
0.00162496
0.00165226
0.00167822
0.00170261
0.0017252
0.00174573
0.00176399
0.00177973
0.00179274
0.0018028
0.00180972
0.00181333
0.0018135
0.0018101
0.00180307
0.00179237
0.00177802
0.00176007
0.00173863
0.00171386
0.00168595
0.00165515
0.00162173
0.00158597
0.00154816
0.00150861
0.00146757
0.00142531
0.00138207
0.00133812
0.00129382
0.00124957
0.00120594
0.00116357
0.00112312
0.00108517
0.00105026
0.00101987
0.000994151
0.000972978
0.00095605
0.000942959
0.000933253
0.000926477
0.000922198
0.000920022
0.000919596
0.000920611
0.000922798
0.000925925
0.00092979
0.000934221
0.000939066
0.000944194
0.000949489
0.00095485
0.000960187
0.000965419
0.000970473
0.000975284
0.00097979
0.000983934
0.000987661
0.000990917
0.000993648
0.000995797
0.000997303
0.000998099
0.000998116
0.000997284
0.000995552
0.00099302
0.000989981
0.000986299
0.000981929
0.00097685
0.000971052
0.000964531
0.000957281
0.000949292
0.000940534
0.000930972
0.00092066
0.000909971
0.00089937
0.000885651
0.00087265
0.000859017
0.000848381
0.00084983
0.000832763
0.000800752
0.000788641
0.000776875
0.000770785
0.000790852
0.000776245
0.00073911
0.000754067
0.000719669
0.0007108
0.000720051
0.000733755
0.000702246
0.000705007
0.000705045
0.000672634
0.000686153
0.00069497
0.000690027
0.000679555
0.000665754
0.000656413
0.000639933
0.000614303
9.98925e-05
0.000227669
0.000344458
0.000436154
0.000503801
0.000550124
0.000578292
0.000592088
0.000594658
0.000589385
0.000581104
0.000574078
0.000571212
0.000573517
0.000580156
0.000589363
0.000599363
0.000608952
0.000617671
0.000625691
0.000633581
0.000642067
0.000651847
0.000663496
0.000677441
0.000693965
0.000713223
0.000735269
0.000760072
0.000787529
0.000817478
0.000849715
0.000884006
0.000920098
0.000957735
0.000996664
0.00103665
0.00107747
0.00111894
0.00116089
0.00120318
0.0012457
0.00128836
0.00133109
0.00137383
0.00141653
0.00145916
0.00150168
0.00154403
0.00158619
0.00162808
0.00166965
0.00171083
0.00175153
0.00179166
0.00183113
0.00186986
0.00190773
0.0019451
0.00198222
0.00201908
0.00205555
0.00209145
0.00212661
0.00216079
0.00219377
0.0022253
0.00225513
0.002283
0.00230863
0.00233177
0.00235214
0.0023695
0.0023836
0.00239421
0.00240114
0.0024042
0.00240325
0.00239819
0.00238897
0.00237558
0.00235805
0.0023365
0.00231108
0.002282
0.00224955
0.00221402
0.00217576
0.00213514
0.0020925
0.00204818
0.00200245
0.00195554
0.00190762
0.00185881
0.00180927
0.00175924
0.00170909
0.00165938
0.00161085
0.00156434
0.00152073
0.00148172
0.00144792
0.00141957
0.00139659
0.00137871
0.00136549
0.00135642
0.00135098
0.00134865
0.00134893
0.00135139
0.00135563
0.0013613
0.00136811
0.00137578
0.00138408
0.0013928
0.00140178
0.00141084
0.00141984
0.00142867
0.0014372
0.00144533
0.00145296
0.00146
0.00146637
0.00147198
0.00147676
0.00148061
0.00148347
0.00148526
0.0014859
0.00148533
0.00148351
0.00148042
0.00147637
0.00147127
0.00146507
0.00145771
0.00144918
0.00143946
0.00142856
0.00141648
0.00140321
0.00138876
0.00137323
0.00135693
0.00134021
0.00132228
0.00130288
0.00128261
0.00126307
0.00124586
0.00122415
0.00119888
0.00117901
0.0011592
0.00114223
0.00113285
0.00111381
0.0010895
0.00107907
0.0010572
0.00104185
0.00103123
0.00102357
0.00100115
0.000988691
0.000976337
0.0009538
0.000944178
0.000935225
0.000920081
0.000901338
0.000880476
0.000862296
0.000837923
0.000805394
0.000120217
0.000277681
0.000418004
0.000525737
0.000603784
0.00065681
0.000689411
0.000705632
0.000709323
0.000705672
0.000699512
0.000694734
0.00069374
0.000697285
0.000704828
0.000715208
0.000727279
0.000740301
0.000754046
0.000768717
0.000784778
0.000802779
0.000823221
0.00084648
0.000872778
0.00090219
0.000934663
0.00097004
0.00100808
0.00104851
0.00109098
0.00113517
0.00118072
0.00122731
0.00127463
0.0013224
0.00137038
0.00141836
0.00146615
0.00151363
0.0015607
0.00160727
0.0016533
0.00169877
0.00174366
0.00178799
0.00183177
0.00187502
0.00191777
0.00196002
0.0020018
0.00204312
0.00208398
0.00212436
0.00216423
0.00220357
0.0022423
0.00228034
0.00231803
0.00235547
0.00239261
0.00242931
0.00246539
0.00250068
0.00253493
0.00256793
0.00259942
0.00262914
0.00265684
0.00268225
0.00270509
0.00272512
0.00274207
0.00275571
0.00276582
0.0027722
0.00277468
0.00277314
0.00276749
0.00275768
0.00274372
0.00272569
0.00270369
0.00267794
0.00264868
0.00261621
0.00258091
0.00254317
0.00250341
0.00246206
0.00241948
0.00237601
0.00233187
0.00228717
0.00224194
0.00219613
0.00214971
0.00210273
0.00205543
0.0020083
0.00196205
0.0019176
0.00187663
0.00184013
0.00180878
0.00178287
0.00176243
0.00174724
0.00173688
0.00173088
0.00172868
0.00172976
0.0017336
0.00173971
0.00174768
0.0017571
0.00176764
0.00177899
0.00179088
0.00180308
0.00181539
0.0018276
0.00183955
0.00185109
0.00186209
0.00187241
0.00188193
0.00189056
0.00189817
0.00190467
0.00190998
0.00191398
0.00191662
0.0019178
0.00191747
0.00191558
0.0019121
0.00190711
0.00190076
0.00189295
0.0018836
0.00187271
0.00186024
0.00184621
0.00183063
0.00181351
0.00179489
0.00177487
0.00175364
0.0017314
0.00170792
0.00168288
0.00165684
0.00163053
0.0016044
0.00157707
0.00154883
0.00152181
0.00149475
0.00146915
0.00144618
0.00142107
0.00139517
0.0013732
0.00134917
0.00132712
0.00130653
0.00128719
0.00126342
0.0012422
0.00122123
0.00119716
0.0011757
0.00115455
0.00113038
0.00110381
0.00107548
0.00104793
0.00101536
0.000976251
0.000139969
0.000322159
0.00048328
0.000606155
0.000695088
0.000756143
0.000794285
0.000814076
0.000820982
0.00082029
0.000816798
0.000814285
0.000815119
0.000820246
0.000829554
0.000842406
0.000858117
0.000876231
0.000896602
0.00091934
0.000944695
0.000972938
0.00100427
0.00103878
0.00107642
0.00111703
0.00116035
0.00120605
0.00125376
0.00130309
0.00135365
0.00140504
0.00145692
0.00150896
0.00156086
0.00161237
0.00166327
0.0017134
0.00176262
0.00181084
0.001858
0.00190407
0.00194906
0.00199299
0.00203591
0.00207788
0.00211897
0.00215926
0.00219884
0.0022378
0.00227619
0.00231409
0.00235155
0.0023886
0.00242526
0.00246151
0.0024973
0.00253256
0.00256758
0.00260241
0.002637
0.00267123
0.00270493
0.00273792
0.00276998
0.0028009
0.00283043
0.00285834
0.00288438
0.00290828
0.0029298
0.0029487
0.00296472
0.00297766
0.0029873
0.00299346
0.00299598
0.00299475
0.00298967
0.00298073
0.00296792
0.00295132
0.00293106
0.00290733
0.0028804
0.00285059
0.00281828
0.00278391
0.00274793
0.00271083
0.00267304
0.00263495
0.00259684
0.00255885
0.00252098
0.00248308
0.0024449
0.00240621
0.00236688
0.002327
0.00228694
0.00224738
0.00220972
0.00217515
0.00214463
0.00211883
0.00209812
0.00208258
0.00207202
0.00206611
0.0020644
0.00206637
0.00207149
0.00207926
0.00208919
0.00210084
0.00211382
0.00212775
0.00214233
0.00215726
0.0021723
0.00218721
0.00220179
0.00221586
0.00222925
0.00224181
0.00225341
0.0022639
0.00227317
0.00228111
0.00228761
0.00229257
0.00229591
0.00229755
0.00229742
0.00229547
0.00229165
0.00228593
0.00227852
0.00226935
0.00225835
0.00224549
0.00223075
0.00221413
0.00219566
0.00217537
0.0021533
0.00212954
0.00210421
0.00207743
0.00204919
0.0020194
0.00198845
0.00195677
0.00192462
0.00189184
0.0018586
0.00182545
0.00179225
0.00175981
0.00172858
0.00169728
0.00166632
0.00163683
0.00160747
0.00157907
0.00155141
0.00152436
0.0014961
0.00146844
0.00144084
0.00141207
0.00138316
0.00135371
0.00132228
0.0012889
0.00125377
0.0012178
0.00117768
0.00113241
0.000158155
0.000361938
0.000541507
0.000678694
0.00077898
0.000848542
0.000893298
0.000919039
0.000931229
0.000935115
0.000935446
0.000936043
0.00093948
0.000947077
0.000959186
0.000975605
0.000995954
0.00101991
0.00104727
0.00107796
0.00111198
0.00114929
0.00118979
0.00123331
0.00127959
0.00132829
0.00137902
0.00143137
0.00148491
0.00153923
0.00159392
0.00164862
0.00170298
0.00175671
0.00180955
0.00186129
0.00191174
0.00196078
0.00200832
0.00205431
0.00209873
0.0021416
0.00218298
0.00222292
0.00226154
0.00229895
0.00233528
0.00237065
0.0024052
0.00243907
0.00247238
0.00250523
0.00253771
0.0025699
0.00260183
0.00263351
0.00266491
0.00269598
0.00272692
0.00275781
0.00278858
0.00281914
0.00284932
0.00287896
0.00290788
0.00293585
0.00296267
0.0029881
0.00301192
0.0030339
0.0030538
0.0030714
0.00308648
0.00309883
0.00310828
0.00311464
0.00311778
0.00311759
0.00311398
0.00310692
0.00309641
0.00308251
0.00306534
0.00304508
0.00302196
0.0029963
0.00296849
0.00293895
0.00290816
0.00287664
0.00284489
0.00281335
0.0027824
0.00275224
0.00272292
0.0026943
0.00266604
0.00263771
0.00260889
0.0025793
0.00254888
0.00251792
0.00248735
0.00245832
0.0024319
0.00240898
0.00239023
0.00237603
0.00236648
0.00236146
0.00236068
0.00236374
0.00237016
0.00237945
0.00239111
0.00240469
0.00241973
0.00243585
0.00245269
0.00246992
0.00248726
0.00250445
0.00252124
0.00253744
0.00255285
0.0025673
0.00258063
0.00259271
0.00260338
0.00261254
0.00262007
0.00262587
0.00262984
0.0026319
0.00263198
0.00263002
0.00262595
0.00261974
0.00261147
0.00260121
0.00258888
0.00257443
0.00255786
0.00253917
0.00251837
0.00249551
0.00247063
0.00244381
0.00241515
0.00238474
0.00235264
0.00231893
0.00228387
0.00224777
0.00221088
0.0021733
0.00213521
0.00209686
0.00205839
0.00202032
0.00198291
0.00194592
0.0019095
0.00187399
0.00183907
0.00180493
0.00177141
0.00173836
0.00170515
0.00167213
0.00163906
0.00160535
0.00157088
0.00153541
0.00149825
0.00145922
0.00141828
0.0013755
0.00132897
0.0012782
0.000174137
0.000395729
0.000591406
0.000741896
0.000852715
0.000931575
0.000985015
0.00101878
0.00103826
0.00104856
0.00105434
0.00105949
0.00106681
0.00107801
0.00109385
0.00111449
0.00113976
0.00116936
0.00120301
0.00124046
0.00128143
0.00132567
0.00137284
0.00142259
0.00147452
0.00152819
0.00158317
0.00163901
0.00169527
0.00175154
0.00180745
0.00186266
0.00191684
0.00196975
0.00202116
0.00207088
0.00211877
0.00216475
0.00220877
0.0022508
0.00229087
0.00232905
0.00236542
0.00240011
0.00243326
0.00246503
0.0024956
0.00252513
0.00255382
0.00258182
0.00260931
0.00263643
0.00266329
0.00268999
0.00271659
0.00274312
0.00276958
0.00279593
0.0028223
0.00284876
0.00287526
0.00290171
0.00292797
0.0029539
0.00297932
0.00300403
0.00302784
0.00305055
0.00307195
0.00309183
0.00310999
0.00312623
0.00314036
0.0031522
0.00316159
0.00316837
0.00317242
0.00317364
0.00317194
0.00316729
0.00315968
0.00314915
0.0031358
0.00311976
0.00310124
0.00308053
0.00305798
0.00303398
0.00300903
0.00298364
0.00295834
0.00293365
0.00291
0.00288772
0.00286693
0.00284757
0.00282931
0.00281168
0.00279404
0.00277589
0.00275672
0.00273643
0.00271543
0.00269461
0.00267492
0.00265732
0.00264262
0.00263145
0.0026242
0.002621
0.00262178
0.00262628
0.00263414
0.00264495
0.00265822
0.00267351
0.00269038
0.00270839
0.00272718
0.0027464
0.00276571
0.00278485
0.00280355
0.00282159
0.00283874
0.00285484
0.00286969
0.00288315
0.00289508
0.00290533
0.0029138
0.00292038
0.00292496
0.00292746
0.0029278
0.00292591
0.00292174
0.00291523
0.00290636
0.00289528
0.00288193
0.00286626
0.00284826
0.00282793
0.00280529
0.00278037
0.00275323
0.00272395
0.00269259
0.00265926
0.00262405
0.00258709
0.0025486
0.00250883
0.002468
0.00242632
0.00238397
0.00234117
0.00229814
0.00225525
0.00221275
0.0021707
0.00212923
0.00208849
0.00204847
0.0020092
0.00197058
0.00193248
0.00189463
0.00185697
0.00181929
0.00178118
0.00174226
0.00170221
0.00166057
0.00161705
0.00157143
0.00152347
0.0014719
0.00141651
0.000186926
0.000421203
0.000629851
0.000792268
0.000914433
0.00100405
0.00106772
0.00111116
0.00113962
0.00115805
0.00117096
0.0011822
0.00119474
0.00121058
0.00123083
0.0012559
0.00128581
0.00132029
0.001359
0.00140154
0.00144747
0.00149637
0.00154777
0.00160122
0.00165625
0.00171237
0.00176913
0.00182608
0.0018828
0.00193891
0.00199405
0.0020479
0.0021002
0.00215069
0.00219919
0.00224555
0.00228967
0.00233148
0.00237096
0.00240813
0.00244305
0.00247583
0.0025066
0.0025355
0.00256273
0.00258849
0.00261299
0.00263644
0.00265905
0.00268104
0.00270259
0.00272388
0.00274504
0.00276619
0.00278742
0.00280877
0.00283026
0.00285186
0.00287364
0.00289565
0.00291785
0.00294017
0.00296247
0.00298462
0.00300645
0.0030278
0.00304849
0.00306834
0.00308716
0.00310478
0.00312103
0.00313574
0.00314875
0.00315991
0.0031691
0.00317618
0.00318106
0.00318364
0.00318386
0.00318167
0.00317707
0.00317007
0.00316073
0.00314917
0.00313555
0.0031201
0.00310312
0.00308497
0.0030661
0.003047
0.00302823
0.00301031
0.00299376
0.00297897
0.0029662
0.00295549
0.0029466
0.00293906
0.00293218
0.00292537
0.00291793
0.00290928
0.00289928
0.00288845
0.00287749
0.00286721
0.00285846
0.00285199
0.0028484
0.00284807
0.00285115
0.00285759
0.0028672
0.00287965
0.00289455
0.00291148
0.00293003
0.00294977
0.0029703
0.00299128
0.00301236
0.00303323
0.00305363
0.00307331
0.00309204
0.00310962
0.00312586
0.0031406
0.00315369
0.00316499
0.00317438
0.00318174
0.00318696
0.00318996
0.00319066
0.00318897
0.00318484
0.00317821
0.00316901
0.00315738
0.0031433
0.00312673
0.00310766
0.00308607
0.003062
0.00303547
0.00300653
0.00297525
0.00294172
0.00290602
0.00286826
0.0028286
0.00278722
0.00274435
0.00270021
0.00265501
0.00260897
0.00256231
0.00251529
0.0024682
0.0024213
0.00237476
0.00232874
0.00228338
0.00223876
0.0021949
0.00215176
0.00210926
0.00206724
0.00202554
0.00198393
0.00194208
0.00189955
0.00185598
0.00181091
0.00176397
0.00171483
0.00166309
0.00160795
0.00154902
0.000194805
0.000438112
0.000656561
0.000830027
0.00096381
0.00106505
0.00114007
0.00119442
0.00123318
0.0012611
0.00128248
0.00130111
0.00131998
0.00134126
0.0013663
0.00139576
0.00142979
0.00146821
0.00151065
0.00155667
0.00160575
0.00165737
0.00171102
0.00176619
0.00182237
0.00187908
0.00193586
0.00199229
0.00204796
0.0021025
0.0021556
0.00220695
0.0022563
0.00230345
0.00234823
0.00239051
0.00243022
0.00246733
0.00250184
0.0025338
0.00256331
0.00259051
0.00261554
0.00263862
0.00265995
0.00267977
0.00269832
0.00271585
0.00273261
0.00274882
0.00276469
0.00278043
0.00279619
0.00281209
0.00282825
0.00284472
0.00286151
0.00287862
0.00289608
0.00291389
0.00293202
0.00295038
0.00296886
0.00298731
0.0030056
0.00302357
0.00304105
0.00305789
0.00307394
0.00308904
0.00310308
0.0031159
0.0031274
0.00313748
0.00314602
0.00315295
0.0031582
0.0031617
0.00316341
0.0031633
0.00316137
0.00315761
0.00315207
0.00314482
0.00313599
0.00312575
0.00311433
0.00310204
0.00308925
0.00307643
0.00306409
0.00305276
0.00304299
0.00303523
0.0030298
0.00302697
0.00302627
0.00302773
0.00303086
0.00303493
0.003039
0.00304214
0.00304377
0.00304399
0.00304312
0.00304172
0.00304051
0.00304024
0.00304165
0.0030453
0.00305157
0.00306059
0.00307238
0.00308674
0.00310341
0.00312203
0.00314223
0.00316361
0.00318579
0.00320841
0.00323112
0.0032536
0.00327558
0.00329679
0.00331699
0.00333598
0.00335355
0.00336953
0.00338377
0.00339612
0.00340644
0.00341463
0.00342057
0.00342416
0.00342533
0.00342398
0.00342006
0.00341349
0.00340424
0.00339229
0.00337775
0.00336058
0.00334074
0.00331823
0.00329307
0.00326529
0.00323493
0.00320207
0.00316677
0.00312913
0.00308927
0.00304734
0.0030035
0.00295798
0.00291099
0.00286274
0.00281347
0.00276341
0.00271284
0.00266202
0.00261121
0.00256065
0.00251052
0.00246099
0.00241219
0.00236419
0.00231699
0.00227056
0.0022248
0.00217954
0.00213457
0.00208958
0.00204414
0.00199785
0.00195025
0.00190088
0.00184932
0.0017951
0.00173761
0.00167647
0.00019539
0.000433597
0.000660786
0.000848707
0.000997561
0.00111289
0.0012009
0.00126734
0.0013174
0.00135574
0.00138654
0.00141343
0.00143939
0.00146664
0.00149668
0.00153036
0.00156798
0.00160947
0.00165453
0.00170272
0.00175352
0.00180641
0.00186084
0.0019163
0.00197229
0.00202832
0.00208397
0.00213881
0.00219246
0.00224459
0.00229489
0.00234308
0.00238894
0.00243227
0.00247295
0.00251086
0.00254596
0.00257823
0.00260771
0.00263447
0.00265865
0.00268041
0.00269992
0.00271743
0.00273317
0.00274741
0.00276043
0.00277248
0.00278384
0.00279477
0.00280549
0.0028162
0.00282709
0.00283829
0.0028499
0.00286199
0.00287458
0.00288767
0.00290124
0.00291527
0.00292969
0.00294441
0.00295931
0.00297425
0.00298909
0.00300368
0.00301788
0.00303156
0.00304458
0.00305683
0.00306822
0.00307866
0.00308807
0.0030964
0.00310359
0.00310963
0.00311447
0.0031181
0.00312052
0.00312173
0.00312172
0.00312053
0.00311817
0.00311471
0.00311021
0.00310481
0.00309866
0.003092
0.00308512
0.00307841
0.00307232
0.00306736
0.00306404
0.00306285
0.00306403
0.00306779
0.00307449
0.00308416
0.00309641
0.00311052
0.00312544
0.00314001
0.00315331
0.00316503
0.00317508
0.00318367
0.00319127
0.00319852
0.00320617
0.00321489
0.00322523
0.00323758
0.00325212
0.00326879
0.00328748
0.00330795
0.00332988
0.00335292
0.00337673
0.00340094
0.00342523
0.00344927
0.00347277
0.00349546
0.0035171
0.00353747
0.00355636
0.00357359
0.003589
0.00360243
0.00361376
0.00362285
0.00362959
0.00363389
0.00363566
0.0036348
0.00363125
0.00362494
0.00361582
0.00360383
0.00358909
0.00357156
0.00355124
0.0035281
0.00350216
0.00347344
0.00344199
0.00340787
0.00337115
0.00333193
0.00329031
0.00324646
0.00320052
0.0031527
0.00310322
0.00305229
0.00300015
0.00294705
0.00289326
0.00283905
0.0027847
0.00273046
0.00267656
0.0026232
0.00257056
0.00251874
0.00246782
0.00241779
0.00236862
0.00232018
0.00227228
0.00222462
0.00217683
0.00212847
0.00207908
0.00202814
0.00197515
0.00191959
0.0018609
0.00179871
0.000173189
0.000344987
0.000611915
0.000837773
0.00101298
0.00114725
0.00125026
0.00132971
0.00139158
0.00144079
0.00148145
0.00151707
0.00155052
0.00158402
0.00161916
0.00165689
0.00169769
0.00174162
0.00178848
0.00183791
0.00188944
0.00194258
0.0019968
0.00205161
0.00210652
0.00216108
0.00221487
0.0022675
0.0023186
0.00236786
0.00241497
0.00245971
0.00250185
0.00254124
0.00257774
0.00261128
0.00264182
0.00266939
0.00269403
0.00271585
0.002735
0.00275167
0.00276608
0.00277847
0.00278913
0.00279833
0.00280637
0.00281356
0.00282017
0.00282647
0.0028327
0.00283909
0.0028458
0.00285299
0.00286074
0.00286912
0.00287815
0.0028878
0.00289803
0.00290879
0.00291998
0.00293146
0.00294311
0.00295478
0.00296632
0.0029776
0.00298847
0.00299881
0.00300854
0.00301756