/*--------------------------------*- C++ -*----------------------------------*\
  =========                 |
  \\      /  F ield         | OpenFOAM: The Open Source CFD Toolbox
   \\    /   O peration     | Website:  https://openfoam.org
    \\  /    A nd           | Version:  9
     \\/     M anipulation  |
\*---------------------------------------------------------------------------*/
FoamFile
{
    format      ascii;
    class       volScalarField;
    location    "0.24";
    object      p;
}
// * * * * * * * * * * * * * * * * * * * * * * * * * * * * * * * * * * * * * //

dimensions      [0 2 -2 0 0 0 0];

internalField   nonuniform List<scalar> 
12225
(
0.960837
0.635959
0.540526
0.52911
0.524379
0.523714
0.52873
0.537281
0.547989
0.560512
0.574589
0.589819
0.605725
0.621688
0.63699
0.649894
0.660326
0.636891
0.536676
0.549641
0.537344
0.531941
0.527521
0.526664
0.531395
0.539822
0.550571
0.563239
0.577523
0.592996
0.609183
0.625488
0.641334
0.655303
0.669025
0.687379
0.510339
0.560719
0.543971
0.535139
0.531121
0.530488
0.534971
0.543202
0.553949
0.566773
0.58133
0.597181
0.613875
0.6309
0.647911
0.663914
0.683528
0.71922
0.544614
0.567356
0.545442
0.536325
0.533255
0.53314
0.537607
0.545739
0.55649
0.569439
0.584238
0.600473
0.617741
0.635646
0.654057
0.672687
0.696078
0.732071
0.550787
0.560671
0.542945
0.535872
0.533837
0.534374
0.53899
0.547086
0.557814
0.570796
0.585713
0.602187
0.61987
0.638455
0.657909
0.678421
0.70346
0.735646
0.544425
0.551645
0.539584
0.534425
0.533265
0.534459
0.539262
0.547307
0.557933
0.570815
0.585666
0.602148
0.619949
0.638792
0.658621
0.679775
0.704748
0.732732
0.538316
0.544231
0.53604
0.532223
0.531779
0.533544
0.538486
0.546409
0.556816
0.569428
0.583986
0.600182
0.617711
0.636279
0.655725
0.676316
0.699747
0.72328
0.533516
0.537828
0.532137
0.529351
0.529479
0.531675
0.53666
0.544355
0.554394
0.566534
0.580535
0.596102
0.612915
0.630623
0.648933
0.667918
0.688615
0.70756
0.528844
0.53171
0.527809
0.525868
0.526414
0.528876
0.533776
0.541109
0.550604
0.562045
0.5752
0.589771
0.605402
0.62167
0.638148
0.654686
0.671816
0.686195
0.523859
0.525677
0.523086
0.521808
0.522611
0.525161
0.52983
0.536644
0.545403
0.555905
0.567915
0.581116
0.595113
0.609411
0.623468
0.636942
0.650008
0.659875
0.518524
0.519646
0.517968
0.51717
0.518079
0.520542
0.524819
0.530948
0.538769
0.548088
0.558657
0.570138
0.582094
0.593974
0.605157
0.61516
0.623929
0.629324
0.513333
0.514031
0.512903
0.512395
0.513274
0.515507
0.519283
0.52463
0.531412
0.539436
0.548439
0.558065
0.567848
0.577206
0.585485
0.592118
0.596918
0.598206
0.507918
0.508308
0.50755
0.507188
0.507917
0.509789
0.512935
0.51737
0.52297
0.529536
0.536794
0.54437
0.551782
0.558437
0.563679
0.566921
0.567865
0.565269
0.50131
0.501473
0.500941
0.500594
0.501016
0.50232
0.504586
0.507812
0.511878
0.516578
0.521624
0.526636
0.531128
0.534525
0.536201
0.535595
0.532365
0.525664
0.493272
0.493286
0.492804
0.492298
0.492216
0.492697
0.493787
0.49546
0.497593
0.499979
0.502325
0.504256
0.50531
0.504957
0.502644
0.497875
0.490326
0.479412
0.483564
0.483467
0.482853
0.481961
0.481129
0.48049
0.480065
0.47981
0.479597
0.479222
0.478406
0.4768
0.473992
0.469531
0.462964
0.453891
0.442049
0.427019
0.472005
0.471795
0.470861
0.46932
0.467446
0.465361
0.463072
0.460519
0.457582
0.454072
0.44974
0.444288
0.437379
0.428662
0.417801
0.404508
0.388604
0.369797
0.45864
0.458278
0.456833
0.454354
0.451117
0.447253
0.442768
0.437608
0.431668
0.424793
0.416784
0.407409
0.396421
0.383573
0.368642
0.351445
0.331887
0.309778
0.44411
0.443534
0.441361
0.437619
0.432668
0.426686
0.4197
0.411679
0.402561
0.392239
0.380579
0.367429
0.352634
0.336049
0.317557
0.297073
0.274575
0.249991
0.4334
0.432658
0.429736
0.424743
0.418218
0.410413
0.401381
0.391124
0.379618
0.366798
0.352573
0.336844
0.319514
0.300497
0.279726
0.257158
0.232792
0.206602
0.42742
0.426589
0.422989
0.416887
0.409073
0.399865
0.389332
0.37751
0.364403
0.349968
0.334141
0.316854
0.298044
0.277656
0.255649
0.231998
0.206707
0.179772
0.424431
0.423625
0.419291
0.412039
0.403042
0.392638
0.380892
0.367873
0.353604
0.338045
0.321144
0.302851
0.283121
0.261918
0.239216
0.215
0.189273
0.162048
0.423639
0.423152
0.417993
0.409522
0.399448
0.388022
0.375295
0.361388
0.346318
0.330029
0.312469
0.293598
0.273381
0.25179
0.228803
0.20441
0.178611
0.151426
0.424388
0.424707
0.418509
0.408766
0.397749
0.385425
0.371883
0.357325
0.341734
0.325014
0.307109
0.28798
0.267596
0.245928
0.222956
0.198666
0.173053
0.146141
0.426752
0.428526
0.42049
0.409311
0.397485
0.384307
0.370044
0.355016
0.339117
0.322193
0.304181
0.285039
0.264731
0.243225
0.220496
0.196525
0.171299
0.144842
0.430673
0.435931
0.424154
0.410869
0.398185
0.384109
0.369187
0.353833
0.337801
0.320856
0.302932
0.283973
0.263936
0.242785
0.220484
0.197008
0.172331
0.14648
0.427395
0.445083
0.429065
0.413028
0.399178
0.384129
0.368673
0.353184
0.337199
0.320415
0.302764
0.284165
0.264569
0.243933
0.222213
0.199373
0.175378
0.150243
0.393726
0.442399
0.430391
0.414306
0.399363
0.383398
0.367742
0.352442
0.336793
0.320413
0.303252
0.285196
0.266202
0.246221
0.225202
0.203103
0.179878
0.15552
0.392259
0.423218
0.423037
0.413069
0.39814
0.381512
0.366067
0.351342
0.336294
0.320596
0.304098
0.286716
0.268426
0.249175
0.228907
0.207575
0.185136
0.161573
0.807976
0.532729
0.436021
0.414844
0.398244
0.38093
0.365586
0.351242
0.336669
0.32142
0.305302
0.288335
0.270488
0.251708
0.231931
0.211103
0.189186
0.166192
-0.880707
-0.872905
-0.87953
-0.904669
-0.943044
-0.988029
-1.03372
-1.07487
-1.10704
-1.12806
-1.14092
-1.14863
-1.1543
-1.16061
-1.16992
-1.1838
-1.20298
-1.22776
-1.25829
-1.29478
-1.33757
-1.38712
-1.44397
-1.509
-1.58332
-1.66799
-1.76387
-1.8718
-1.99255
-2.12679
-2.27497
-2.43734
-2.61386
-2.80418
-3.00766
-3.22331
-3.44983
-3.68568
-3.92904
-4.17792
-4.43017
-4.68351
-4.93562
-5.18408
-5.4265
-5.66045
-5.88353
-6.09338
-6.28767
-6.46418
-6.62077
-6.75542
-6.8662
-6.95155
-7.01057
-7.04295
-7.04775
-7.02186
-6.96142
-6.86368
-6.73099
-6.56477
-6.3664
-6.13742
-5.87964
-5.59528
-5.2869
-4.95747
-4.61032
-4.24907
-3.87758
-3.49992
-3.12023
-2.74268
-2.37136
-2.01018
-1.66281
-1.33254
-1.02225
-0.734326
-0.470612
-0.232378
-0.0203136
0.165458
0.325351
0.460257
0.571479
0.66065
0.729643
0.78048
0.815247
0.836012
0.844753
0.843303
0.833312
0.816232
0.793307
0.765586
0.733934
0.699031
0.661377
0.621833
0.580713
0.53828
0.494801
0.450529
0.405704
0.360558
0.315315
0.270194
0.225406
0.181158
0.137645
0.0950562
0.0535671
0.0133407
-0.0254738
-0.0627418
-0.0983435
-0.132175
-0.164146
-0.194184
-0.222234
-0.248257
-0.272232
-0.294157
-0.314045
-0.331922
-0.347829
-0.361817
-0.373948
-0.384293
-0.392932
-0.399948
-0.405408
-0.409411
-0.411943
-0.413129
-0.413057
-0.4118
-0.409417
-0.405964
-0.401484
-0.39601
-0.389552
-0.382123
-0.373698
-0.36388
-0.350916
-0.33051
-0.319518
-0.318562
-0.310973
-0.306751
-0.292519
-0.268289
-0.250285
-0.228683
-0.211838
-0.202152
-0.186811
-0.169683
-0.152199
-0.133516
-0.115472
-0.102312
-0.0821387
-0.0621767
-0.0459089
-0.0254176
-0.012134
0.00228866
0.0192918
0.0324742
0.0434828
0.0533953
0.0622938
0.0705217
0.0782962
0.0869722
-0.950074
-0.944069
-0.959325
-0.992678
-1.0331
-1.07396
-1.11151
-1.14302
-1.16654
-1.17979
-1.17934
-1.1683
-1.15237
-1.13774
-1.12924
-1.12963
-1.13941
-1.1575
-1.18264
-1.2141
-1.25169
-1.29614
-1.34864
-1.4099
-1.48082
-1.56285
-1.6572
-1.76494
-1.88699
-2.02407
-2.17661
-2.34477
-2.52834
-2.72675
-2.93908
-3.16407
-3.40019
-3.64565
-3.89847
-4.15654
-4.41763
-4.67948
-4.93978
-5.19621
-5.44645
-5.68821
-5.91919
-6.13714
-6.3398
-6.52498
-6.69049
-6.83419
-6.95396
-7.04772
-7.11338
-7.1488
-7.1522
-7.12323
-7.06252
-6.97231
-6.85056
-6.69684
-6.51165
-6.29605
-6.05157
-5.78018
-5.48426
-5.16657
-4.83024
-4.47868
-4.11558
-3.74482
-3.37039
-2.9963
-2.62654
-2.26494
-1.91511
-1.58037
-1.26363
-0.967375
-0.693591
-0.44373
-0.218704
-0.0188898
0.155851
0.306121
0.432933
0.537637
0.621839
0.687325
0.735978
0.769702
0.790351
0.79968
0.799298
0.790653
0.775023
0.753517
0.727077
0.696566
0.662958
0.626337
0.587509
0.546859
0.504741
0.461485
0.417393
0.372746
0.327808
0.282829
0.238047
0.19369
0.149973
0.107098
0.0652557
0.024619
-0.0146532
-0.052418
-0.0885487
-0.122934
-0.155481
-0.18611
-0.214762
-0.241396
-0.265989
-0.288535
-0.309047
-0.327551
-0.344086
-0.3587
-0.371455
-0.382414
-0.391647
-0.399226
-0.405231
-0.409694
-0.412777
-0.41453
-0.415022
-0.41432
-0.412483
-0.409564
-0.405606
-0.400642
-0.394689
-0.387784
-0.380061
-0.371814
-0.363952
-0.359954
-0.347522
-0.329369
-0.316922
-0.300346
-0.287683
-0.27948
-0.264274
-0.250108
-0.233854
-0.214099
-0.197543
-0.180874
-0.163373
-0.145881
-0.128034
-0.108558
-0.0915881
-0.0751313
-0.0560518
-0.0404164
-0.0231774
-0.00770987
0.00610524
0.0201272
0.0318813
0.0424345
0.0524902
0.0617659
0.0705035
0.0805486
-0.998411
-1.00633
-1.02461
-1.05264
-1.08385
-1.11304
-1.13733
-1.15496
-1.1648
-1.16646
-1.15996
-1.14724
-1.13166
-1.11705
-1.10666
-1.10252
-1.10542
-1.1155
-1.13277
-1.15757
-1.19065
-1.23321
-1.28665
-1.35223
-1.43092
-1.52357
-1.63082
-1.75315
-1.89081
-2.04378
-2.21177
-2.39425
-2.59043
-2.79931
-3.01972
-3.2503
-3.48958
-3.73596
-3.98777
-4.24326
-4.50062
-4.75798
-5.01343
-5.26503
-5.51078
-5.74865
-5.9766
-6.19256
-6.39444
-6.58018
-6.7477
-6.89497
-7.02002
-7.12097
-7.19592
-7.24277
-7.25953
-7.24519
-7.19941
-7.12246
-7.01388
-6.8736
-6.70203
-6.50005
-6.269
-6.01063
-5.72714
-5.42109
-5.09541
-4.75333
-4.39837
-4.03423
-3.66473
-3.29376
-2.9252
-2.56278
-2.21008
-1.8704
-1.54668
-1.24148
-0.956905
-0.694565
-0.455574
-0.24054
-0.0495877
0.117606
0.261762
0.38394
0.485465
0.567862
0.632781
0.681927
0.716995
0.739615
0.751317
0.753504
0.747446
0.734281
0.715012
0.690561
0.661818
0.629421
0.593952
0.555938
0.515853
0.474127
0.431149
0.387274
0.342829
0.298114
0.253411
0.20898
0.165063
0.121885
0.0796524
0.0385537
-0.00124042
-0.0395773
-0.0763215
-0.111355
-0.144577
-0.175903
-0.205271
-0.232633
-0.257965
-0.281258
-0.302523
-0.321783
-0.339077
-0.354452
-0.367965
-0.379679
-0.389661
-0.397978
-0.404702
-0.409907
-0.413714
-0.416187
-0.417392
-0.417395
-0.416253
-0.414016
-0.410726
-0.406417
-0.401121
-0.394876
-0.387779
-0.380088
-0.372558
-0.366696
-0.355073
-0.339324
-0.326379
-0.311343
-0.299301
-0.289595
-0.275889
-0.261684
-0.245152
-0.226551
-0.209739
-0.193133
-0.175808
-0.158623
-0.140844
-0.121529
-0.105537
-0.0881884
-0.0703688
-0.0539888
-0.0363287
-0.021614
-0.00718966
0.00754765
0.0205159
0.0321031
0.043152
0.0535786
0.0635681
0.0751199
-0.983992
-1.00876
-1.03024
-1.05383
-1.0782
-1.10017
-1.11749
-1.1289
-1.13377
-1.13218
-1.12513
-1.11457
-1.103
-1.09294
-1.08645
-1.08503
-1.08976
-1.10157
-1.12147
-1.15063
-1.19024
-1.2415
-1.30546
-1.38297
-1.47457
-1.5806
-1.70114
-1.83609
-1.9852
-2.14803
-2.32405
-2.51257
-2.71283
-2.92394
-3.14493
-3.37473
-3.61217
-3.85599
-4.10485
-4.35729
-4.61178
-4.8667
-5.12032
-5.37085
-5.61641
-5.85505
-6.08474
-6.3034
-6.50892
-6.69914
-6.87189
-7.02502
-7.15642
-7.26408
-7.34609
-7.40061
-7.42607
-7.42133
-7.38568
-7.31851
-7.21938
-7.08819
-6.92528
-6.73141
-6.50778
-6.25605
-5.97826
-5.67687
-5.35473
-5.01499
-4.66107
-4.29664
-3.9255
-3.55151
-3.17857
-2.81044
-2.45075
-2.10287
-1.76985
-1.45437
-1.15867
-0.884495
-0.633129
-0.405341
-0.201422
-0.0212096
0.135864
0.270715
0.384546
0.478774
0.554967
0.614763
0.659817
0.69173
0.71202
0.722086
0.723199
0.7165
0.703006
0.683635
0.659225
0.630509
0.598099
0.562562
0.52443
0.484197
0.442318
0.399213
0.355266
0.310827
0.26622
0.221741
0.177661
0.134227
0.0916629
0.0501721
0.00993607
-0.0288834
-0.0661435
-0.10172
-0.135507
-0.167416
-0.197381
-0.225352
-0.251301
-0.275219
-0.297114
-0.31701
-0.334941
-0.350955
-0.365107
-0.377458
-0.388074
-0.397026
-0.404388
-0.410245
-0.414689
-0.417795
-0.419631
-0.420259
-0.419734
-0.418107
-0.415418
-0.411704
-0.407001
-0.401355
-0.394827
-0.387569
-0.379986
-0.372253
-0.361432
-0.34856
-0.336238
-0.323086
-0.311153
-0.299626
-0.286318
-0.271967
-0.255888
-0.23872
-0.222088
-0.205543
-0.188421
-0.171231
-0.153393
-0.135033
-0.118833
-0.101001
-0.0837794
-0.0667174
-0.0492127
-0.0342039
-0.0188267
-0.00344385
0.0105548
0.0231672
0.0350771
0.0465805
0.0576074
0.0704499
-0.889835
-0.931946
-0.96336
-0.990245
-1.01449
-1.03502
-1.05068
-1.06099
-1.06606
-1.06661
-1.0639
-1.05965
-1.05581
-1.05423
-1.05654
-1.06408
-1.07809
-1.09976
-1.13033
-1.17103
-1.22299
-1.28717
-1.36429
-1.45481
-1.55894
-1.67668
-1.8079
-1.95229
-2.10949
-2.27903
-2.46039
-2.65296
-2.8561
-3.06907
-3.29105
-3.52117
-3.75844
-4.00178
-4.25004
-4.50192
-4.75607
-5.01098
-5.26507
-5.51664
-5.76387
-6.00488
-6.23765
-6.46012
-6.67014
-6.86551
-7.04402
-7.20343
-7.34156
-7.45628
-7.54557
-7.60752
-7.64051
-7.64323
-7.61464
-7.55393
-7.46057
-7.33441
-7.1757
-6.9851
-6.76375
-6.5132
-6.23547
-5.93295
-5.60846
-5.26515
-4.90647
-4.53609
-4.15787
-3.77577
-3.39374
-3.01569
-2.64535
-2.28624
-1.94156
-1.61414
-1.30637
-1.02017
-0.756951
-0.51763
-0.302613
-0.111837
0.0551863
0.19932
0.321734
0.423842
0.507224
0.573558
0.624547
0.661856
0.687067
0.701642
0.706906
0.704041
0.694088
0.677963
0.65648
0.630351
0.600192
0.56656
0.529989
0.490987
0.450038
0.407596
0.364084
0.319891
0.275376
0.230866
0.186658
0.143021
0.100195
0.0583963
0.017817
-0.0213737
-0.0590269
-0.0950136
-0.129224
-0.161568
-0.191975
-0.220396
-0.246803
-0.271184
-0.293547
-0.313915
-0.332323
-0.348816
-0.36345
-0.376284
-0.387387
-0.39683
-0.40469
-0.411047
-0.415986
-0.419584
-0.421911
-0.423028
-0.42299
-0.421844
-0.419632
-0.41639
-0.412155
-0.406971
-0.400891
-0.394014
-0.386562
-0.378496
-0.36833
-0.35672
-0.344987
-0.332629
-0.320729
-0.308709
-0.295479
-0.281366
-0.265877
-0.249392
-0.233034
-0.216594
-0.199656
-0.182506
-0.1648
-0.146894
-0.13019
-0.112417
-0.0950552
-0.077764
-0.0603333
-0.0445309
-0.0286614
-0.0128595
0.00184773
0.0153292
0.0280623
0.0405245
0.0523695
0.0662532
-0.736407
-0.794631
-0.84145
-0.877132
-0.906219
-0.930016
-0.948527
-0.962061
-0.971432
-0.977866
-0.982892
-0.988197
-0.995442
-1.00612
-1.02153
-1.04284
-1.07116
-1.10759
-1.15323
-1.20908
-1.27603
-1.35479
-1.44582
-1.54938
-1.66553
-1.79419
-1.93514
-2.0881
-2.2527
-2.42854
-2.61517
-2.81208
-3.01872
-3.23449
-3.4587
-3.69063
-3.92941
-4.17414
-4.42379
-4.6772
-4.93311
-5.19016
-5.44683
-5.70148
-5.95236
-6.19757
-6.43512
-6.66291
-6.87875
-7.08037
-7.26549
-7.43177
-7.57693
-7.69872
-7.79501
-7.86377
-7.90323
-7.91193
-7.8886
-7.8323
-7.74241
-7.61868
-7.46128
-7.27081
-7.04834
-6.79539
-6.51393
-6.20639
-5.87557
-5.52466
-5.15718
-4.77687
-4.38771
-3.99375
-3.59911
-3.20783
-2.82384
-2.45081
-2.09214
-1.75082
-1.42944
-1.13007
-0.854284
-0.603115
-0.377078
-0.176188
-7.43498e-06
0.152307
0.281935
0.390322
0.47911
0.550053
0.604948
0.645565
0.673593
0.690599
0.698004
0.697074
0.688914
0.674478
0.654585
0.629945
0.60116
0.56876
0.533254
0.495131
0.454872
0.412937
0.369765
0.325768
0.281328
0.236795
0.192488
0.148692
0.105663
0.063629
0.02279
-0.0166778
-0.0546208
-0.0909064
-0.125422
-0.158077
-0.188801
-0.217543
-0.244275
-0.268987
-0.291686
-0.312396
-0.331151
-0.347996
-0.362987
-0.376184
-0.387654
-0.39747
-0.405708
-0.412448
-0.417769
-0.421749
-0.424458
-0.425958
-0.426302
-0.425535
-0.423699
-0.420829
-0.416962
-0.412137
-0.406404
-0.399844
-0.392582
-0.384519
-0.374867
-0.364021
-0.352753
-0.340916
-0.329077
-0.316943
-0.30385
-0.289845
-0.274772
-0.258847
-0.242754
-0.226454
-0.209677
-0.192628
-0.175109
-0.157403
-0.140304
-0.122571
-0.104995
-0.0874956
-0.0700374
-0.0535683
-0.0372774
-0.0211386
-0.00587437
0.0083637
0.0218931
0.0351935
0.0477325
0.0624469
-0.556058
-0.629553
-0.692362
-0.738754
-0.775254
-0.805215
-0.829671
-0.849579
-0.866255
-0.881292
-0.896417
-0.913342
-0.933609
-0.958513
-0.989128
-1.02638
-1.07115
-1.12426
-1.18652
-1.25865
-1.34129
-1.43488
-1.53974
-1.65602
-1.78375
-1.92284
-2.07312
-2.23436
-2.40628
-2.58858
-2.78089
-2.98283
-3.19396
-3.41379
-3.64175
-3.87722
-4.11948
-4.3677
-4.62095
-4.87818
-5.13821
-5.39972
-5.66125
-5.92119
-6.17781
-6.42921
-6.67336
-6.90813
-7.13126
-7.34041
-7.53319
-7.70717
-7.85995
-7.98916
-8.09252
-8.1679
-8.21336
-8.22729
-8.20827
-8.15521
-8.06738
-7.94444
-7.78648
-7.59404
-7.36815
-7.1103
-6.82246
-6.50707
-6.16697
-5.80544
-5.42605
-5.03269
-4.62944
-4.22054
-3.81027
-3.40287
-3.00244
-2.6129
-2.23784
-1.88047
-1.54357
-1.22939
-0.939682
-0.675602
-0.437776
-0.22629
-0.0407429
0.119704
0.256259
0.370428
0.463933
0.538635
0.596447
0.639267
0.668913
0.687084
0.695324
0.69501
0.687349
0.673366
0.653931
0.629775
0.601507
0.569642
0.534655
0.497006
0.457148
0.415526
0.372575
0.328709
0.284322
0.239775
0.1954
0.151495
0.108328
0.0661339
0.0251206
-0.0145309
-0.0526633
-0.0891418
-0.123853
-0.156706
-0.18763
-0.216576
-0.243517
-0.268444
-0.291365
-0.312303
-0.331294
-0.348383
-0.363625
-0.377081
-0.388818
-0.398909
-0.40743
-0.414458
-0.420072
-0.424347
-0.427354
-0.429154
-0.429798
-0.429331
-0.427793
-0.42522
-0.421645
-0.417108
-0.411654
-0.405351
-0.398271
-0.390315
-0.381061
-0.370749
-0.359852
-0.348389
-0.33666
-0.324524
-0.311586
-0.297767
-0.283031
-0.267513
-0.251656
-0.235505
-0.218882
-0.201929
-0.184554
-0.166971
-0.149628
-0.131874
-0.114126
-0.0964248
-0.0788234
-0.0618432
-0.0451266
-0.028631
-0.0128422
0.00209277
0.0163792
0.0304248
0.0436034
0.0589731
-0.378673
-0.463868
-0.540876
-0.597924
-0.642759
-0.6804
-0.712584
-0.740675
-0.766334
-0.791391
-0.81769
-0.84695
-0.880643
-0.919944
-0.965765
-1.01883
-1.07976
-1.14912
-1.22743
-1.31516
-1.41271
-1.52038
-1.63835
-1.76675
-1.9056
-2.05484
-2.21438
-2.38406
-2.56372
-2.75313
-2.95205
-3.16017
-3.37717
-3.60264
-3.83611
-4.07705
-4.32481
-4.57864
-4.83768
-5.10095
-5.36731
-5.63549
-5.90404
-6.17138
-6.43577
-6.69528
-6.94785
-7.1913
-7.42328
-7.64138
-7.8431
-8.02588
-8.1872
-8.32456
-8.43553
-8.51783
-8.56936
-8.58838
-8.57332
-8.52295
-8.43643
-8.31331
-8.15361
-7.95781
-7.72691
-7.46238
-7.16619
-6.84082
-6.48917
-6.11458
-5.72076
-5.31172
-4.89171
-4.46514
-4.03649
-3.61022
-3.19069
-2.78204
-2.3881
-2.01234
-1.65775
-1.3268
-1.02142
-0.74293
-0.492062
-0.268984
-0.0733304
0.0957427
0.239486
0.359481
0.457554
0.535692
0.595947
0.640363
0.670909
0.689431
0.69762
0.696985
0.68886
0.674366
0.654453
0.629912
0.601381
0.569381
0.534369
0.496769
0.456999
0.415477
0.372613
0.328808
0.28445
0.239902
0.195499
0.151545
0.108313
0.0660438
0.0249496
-0.0147856
-0.0530024
-0.0895652
-0.124361
-0.157299
-0.188311
-0.217349
-0.244389
-0.269421
-0.292457
-0.313519
-0.332644
-0.349878
-0.365275
-0.378897
-0.390811
-0.40109
-0.40981
-0.417047
-0.422878
-0.427375
-0.430608
-0.432638
-0.433515
-0.433283
-0.43198
-0.429641
-0.426301
-0.421997
-0.416771
-0.410679
-0.403762
-0.395944
-0.387005
-0.377096
-0.36651
-0.355336
-0.343746
-0.331674
-0.318884
-0.305266
-0.290813
-0.275616
-0.259974
-0.243967
-0.22749
-0.210635
-0.193373
-0.17587
-0.158378
-0.140573
-0.122675
-0.104782
-0.0869801
-0.0695737
-0.0524416
-0.0355538
-0.0192459
-0.00365404
0.0113456
0.0260727
0.0398701
0.0557476
-0.224166
-0.316977
-0.405022
-0.4718
-0.525207
-0.571045
-0.611502
-0.648283
-0.683302
-0.718526
-0.755835
-0.796923
-0.843204
-0.895773
-0.955429
-1.02275
-1.09818
-1.18208
-1.27476
-1.37649
-1.48751
-1.608
-1.73809
-1.87786
-2.02734
-2.18654
-2.35542
-2.53389
-2.72186
-2.91919
-3.12572
-3.34124
-3.56548
-3.79812
-4.03877
-4.28694
-4.54207
-4.80345
-5.07028
-5.3416
-5.61633
-5.89321
-6.17081
-6.44754
-6.72164
-6.99115
-7.25397
-7.50783
-7.75031
-7.97889
-8.19096
-8.38384
-8.55485
-8.70134
-8.82074
-8.9106
-8.96867
-8.99304
-8.98203
-8.93425
-8.84873
-8.72495
-8.56284
-8.36283
-8.12586
-7.8534
-7.54744
-7.21048
-6.84551
-6.45596
-6.04564
-5.61872
-5.17963
-4.73298
-4.28348
-3.83584
-3.39467
-2.96438
-2.54909
-2.15254
-1.77797
-1.42812
-1.10512
-0.810455
-0.545016
-0.309054
-0.102244
0.0762642
0.227772
0.353952
0.456754
0.538311
0.600838
0.646547
0.677572
0.695935
0.703494
0.701902
0.692615
0.676881
0.655763
0.63013
0.600677
0.567954
0.532417
0.494467
0.454488
0.412857
0.369948
0.326135
0.28179
0.237262
0.19288
0.148947
0.105735
0.0634855
0.0224124
-0.0172993
-0.0554904
-0.0920256
-0.126793
-0.159705
-0.190694
-0.219716
-0.246748
-0.271783
-0.294832
-0.315921
-0.335086
-0.352373
-0.367838
-0.381543
-0.393555
-0.403946
-0.412791
-0.420167
-0.426148
-0.430806
-0.434205
-0.436407
-0.43746
-0.437408
-0.436288
-0.434134
-0.430981
-0.426865
-0.421826
-0.415908
-0.409138
-0.401465
-0.392781
-0.383187
-0.372873
-0.361938
-0.350497
-0.338525
-0.325874
-0.312439
-0.298225
-0.283295
-0.267854
-0.251987
-0.235643
-0.218885
-0.201718
-0.184266
-0.166679
-0.148806
-0.130771
-0.112691
-0.0946654
-0.0768831
-0.059347
-0.0420484
-0.0252299
-0.0090168
0.00665315
0.0220144
0.0364257
0.0526867
-0.10035
-0.200787
-0.29781
-0.373359
-0.434848
-0.488127
-0.535898
-0.580349
-0.623672
-0.667924
-0.714964
-0.766413
-0.823606
-0.887565
-0.959015
-1.03844
-1.12618
-1.22246
-1.32745
-1.4413
-1.56413
-1.69606
-1.83715
-1.98749
-2.14711
-2.31604
-2.49428
-2.68181
-2.87859
-3.08456
-3.2996
-3.52357
-3.75626
-3.99742
-4.24669
-4.50366
-4.76779
-5.03843
-5.31481
-5.59601
-5.88096
-6.1684
-6.45692
-6.7449
-7.03055
-7.31188
-7.58671
-7.8527
-8.10733
-8.34797
-8.57187
-8.77621
-8.95817
-9.11492
-9.24374
-9.34202
-9.40731
-9.43755
-9.43093
-9.38594
-9.30147
-9.1769
-9.01209
-8.80739
-8.56372
-8.28253
-7.96584
-7.61617
-7.23659
-6.83061
-6.40218
-5.95562
-5.49556
-5.0268
-4.55431
-4.08306
-3.61794
-3.16368
-2.72469
-2.30502
-1.90823
-1.53732
-1.19466
-0.881978
-0.600311
-0.350024
-0.130847
0.0580721
0.218092
0.35099
0.458856
0.543991
0.608796
0.655676
0.686971
0.704902
0.71147
0.708475
0.69754
0.680063
0.657217
0.629966
0.599084
0.56517
0.528697
0.490059
0.449611
0.407686
0.36462
0.320751
0.276415
0.23194
0.187642
0.143812
0.100716
0.0585923
0.0176516
-0.0219225
-0.0599725
-0.096365
-0.130991
-0.163765
-0.194623
-0.223523
-0.250445
-0.275384
-0.298354
-0.319379
-0.338497
-0.355756
-0.371211
-0.384924
-0.396962
-0.407398
-0.416305
-0.42376
-0.429835
-0.434598
-0.438113
-0.440437
-0.44162
-0.441704
-0.440724
-0.438716
-0.435712
-0.431748
-0.426863
-0.421091
-0.414454
-0.406924
-0.398453
-0.389114
-0.379035
-0.36831
-0.35702
-0.345163
-0.332642
-0.319375
-0.305367
-0.290665
-0.275407
-0.259675
-0.243453
-0.226788
-0.209699
-0.192279
-0.174624
-0.156675
-0.138509
-0.120246
-0.101985
-0.0838591
-0.0659301
-0.048215
-0.0308984
-0.0140974
0.0022027
0.0181607
0.0331918
0.0497182
-0.0242051
-0.143085
-0.244415
-0.322712
-0.386426
-0.441401
-0.491698
-0.540122
-0.588877
-0.639797
-0.69447
-0.75428
-0.820381
-0.893667
-0.974781
-1.06415
-1.16202
-1.26857
-1.3839
-1.50806
-1.64113
-1.78315
-1.93419
-2.09429
-2.2635
-2.44187
-2.62942
-2.82618
-3.03214
-3.24728
-3.47153
-3.70481
-3.94694
-4.19771
-4.45682
-4.72389
-4.99841
-5.27978
-5.56724
-5.85989
-6.15666
-6.45632
-6.75742
-7.05833
-7.35721
-7.65201
-7.9405
-8.22021
-8.48855
-8.74273
-8.97989
-9.19703
-9.39118
-9.55934
-9.6986
-9.80619
-9.87948
-9.91623
-9.91453
-9.87271
-9.78955
-9.66432
-9.4968
-9.28728
-9.03666
-8.74635
-8.41839
-8.05534
-7.66032
-7.23695
-6.7893
-6.32185
-5.83939
-5.34697
-4.84979
-4.35311
-3.86211
-3.38185
-2.91708
-2.47219
-2.05107
-1.65704
-1.29278
-0.960243
-0.660678
-0.394587
-0.161774
0.0386063
0.207969
0.348203
0.461557
0.55052
0.617712
0.665793
0.697304
0.71462
0.719936
0.715275
0.702415
0.682888
0.657988
0.628781
0.596128
0.560697
0.522992
0.483412
0.442294
0.399939
0.356639
0.312688
0.268381
0.224016
0.17988
0.13625
0.0933788
0.0514972
0.0108093
-0.0285058
-0.066294
-0.102426
-0.136795
-0.169319
-0.19994
-0.228616
-0.255331
-0.280082
-0.302882
-0.32376
-0.342753
-0.359908
-0.375282
-0.388936
-0.400938
-0.41136
-0.420275
-0.427757
-0.433876
-0.4387
-0.442288
-0.444695
-0.445969
-0.446151
-0.445278
-0.443382
-0.440498
-0.43666
-0.431903
-0.426258
-0.419743
-0.412349
-0.404062
-0.394937
-0.385066
-0.374528
-0.363388
-0.351652
-0.339258
-0.326146
-0.31232
-0.297814
-0.282724
-0.267121
-0.251011
-0.23443
-0.217403
-0.200001
-0.18229
-0.164259
-0.145965
-0.127518
-0.109017
-0.0905665
-0.0722555
-0.0541246
-0.0363234
-0.0189645
-0.00207034
0.0144526
0.0301002
0.0468062
-0.0448808
-0.106113
-0.201354
-0.290273
-0.358944
-0.415412
-0.467292
-0.518631
-0.571693
-0.628062
-0.689042
-0.755774
-0.829229
-0.910187
-0.999223
-1.09673
-1.20294
-1.318
-1.44199
-1.57493
-1.71687
-1.86782
-2.02784
-2.19696
-2.37522
-2.56269
-2.75942
-2.96544
-3.18078
-3.40545
-3.63942
-3.88262
-4.13493
-4.39616
-4.66606
-4.94425
-5.23027
-5.52353
-5.8233
-6.12869
-6.43863
-6.75187
-7.06694
-7.38219
-7.69573
-8.00543
-8.30896
-8.60379
-8.88718
-9.15621
-9.40786
-9.63899
-9.84642
-10.027
-10.1776
-10.2954
-10.3774
-10.4213
-10.4251
-10.3869
-10.3054
-10.1799
-10.0099
-9.79571
-9.5382
-9.23877
-8.89943
-8.5228
-8.11205
-7.67087
-7.20345
-6.71442
-6.20875
-5.69169
-5.1687
-4.6453
-4.12701
-3.6192
-3.127
-2.65515
-2.20791
-1.78897
-1.40133
-1.04725
-0.728204
-0.444881
-0.197182
0.0157122
0.195267
0.343486
0.462785
0.55588
0.625684
0.675048
0.706705
0.723301
0.727282
0.72085
0.705942
0.684228
0.65712
0.625792
0.591198
0.554077
0.514976
0.474312
0.432413
0.389553
0.345987
0.301964
0.257735
0.213557
0.169685
0.12637
0.0838469
0.0423344
0.00202806
-0.0368997
-0.0743006
-0.11005
-0.144046
-0.176211
-0.206489
-0.234843
-0.261256
-0.28573
-0.30828
-0.328932
-0.347726
-0.36471
-0.379939
-0.393475
-0.405387
-0.415744
-0.424619
-0.432083
-0.438205
-0.44305
-0.446676
-0.449132
-0.450465
-0.450718
-0.449924
-0.448118
-0.445331
-0.441597
-0.43695
-0.431417
-0.425018
-0.417754
-0.409631
-0.400693
-0.391008
-0.380643
-0.369649
-0.358038
-0.345772
-0.332805
-0.319143
-0.304811
-0.289875
-0.274393
-0.258384
-0.241878
-0.2249
-0.207505
-0.189741
-0.171622
-0.153196
-0.134564
-0.11582
-0.0970547
-0.07837
-0.0598259
-0.0415527
-0.0236617
-0.00620462
0.0108562
0.0271118
0.0439272
-0.0567366
-0.101866
-0.176631
-0.253656
-0.322584
-0.385
-0.443868
-0.501966
-0.561523
-0.624278
-0.691649
-0.764825
-0.844796
-0.932355
-1.0281
-1.13244
-1.24565
-1.36789
-1.49924
-1.63976
-1.78947
-1.9484
-2.11658
-2.29405
-2.48086
-2.67708
-2.88276
-3.09797
-3.32274
-3.55711
-3.80108
-4.0546
-4.31757
-4.58984
-4.87116
-5.16121
-5.45952
-5.76554
-6.07853
-6.39761
-6.72171
-7.04956
-7.37967
-7.71033
-8.03959
-8.36526
-8.68492
-8.99591
-9.29536
-9.58023
-9.84731
-10.0933
-10.3149
-10.5086
-10.6714
-10.7999
-10.8913
-10.9429
-10.9526
-10.9186
-10.8393
-10.7138
-10.5417
-10.3233
-10.0593
-9.75108
-9.40071
-9.01079
-8.58454
-8.12572
-7.63863
-7.128
-6.59898
-6.05702
-5.50779
-4.95711
-4.41078
-3.87451
-3.35381
-2.85379
-2.37913
-1.93388
-1.52143
-1.14438
-0.804481
-0.502642
-0.238903
-0.0124986
0.178067
0.334901
0.460615
0.558231
0.630844
0.681519
0.713349
0.729256
0.731915
0.723721
0.706773
0.682881
0.653572
0.620127
0.583586
0.54476
0.504243
0.462476
0.419786
0.376431
0.332631
0.288591
0.244521
0.200633
0.157147
0.114281
0.0722455
0.0312431
-0.00854392
-0.0469508
-0.0838356
-0.11908
-0.152586
-0.184282
-0.214114
-0.242049
-0.268073
-0.292187
-0.314407
-0.334762
-0.353291
-0.370041
-0.385069
-0.398436
-0.410208
-0.420456
-0.42925
-0.436658
-0.442749
-0.447583
-0.451215
-0.453694
-0.455063
-0.455362
-0.454628
-0.452892
-0.450186
-0.446543
-0.441993
-0.436564
-0.430276
-0.423139
-0.415168
-0.406399
-0.396887
-0.386685
-0.375836
-0.364354
-0.352215
-0.33939
-0.32588
-0.311705
-0.29691
-0.281544
-0.265627
-0.249187
-0.232246
-0.214847
-0.197029
-0.178815
-0.160252
-0.141431
-0.122439
-0.103363
-0.0843097
-0.0653545
-0.0466188
-0.028216
-0.0102211
0.00735498
0.0242071
0.0410843
-0.0419716
-0.108001
-0.179043
-0.246272
-0.31028
-0.37225
-0.433256
-0.494856
-0.558695
-0.62623
-0.698715
-0.777231
-0.862701
-0.955878
-1.05735
-1.16756
-1.28679
-1.41525
-1.55304
-1.70024
-1.8569
-2.02304
-2.19871
-2.38396
-2.57885
-2.78344
-2.9978
-3.22201
-3.45613
-3.70021
-3.95425
-4.21823
-4.49209
-4.77568
-5.06879
-5.37109
-5.68215
-6.00142
-6.32817
-6.66151
-7.00037
-7.34345
-7.68922
-8.03594
-8.38158
-8.72387
-9.06027
-9.38803
-9.70413
-10.0054
-10.2884
-10.5497
-10.7859
-10.9933
-11.1685
-11.3082
-11.4093
-11.469
-11.4851
-11.4555
-11.3788
-11.2539
-11.0804
-10.8583
-10.5884
-10.2722
-9.91156
-9.50915
-9.06822
-8.59258
-8.08659
-7.55509
-7.00337
-6.43704
-5.86199
-5.28427
-4.70997
-4.14515
-3.59564
-3.06696
-2.56419
-2.09181
-1.65361
-1.25255
-0.890738
-0.569338
-0.288576
-0.0477797
0.154532
0.320577
0.453227
0.555681
0.631234
0.68337
0.715495
0.730813
0.732247
0.722399
0.703541
0.677618
0.646268
0.610865
0.572534
0.532145
0.490337
0.447578
0.404201
0.360452
0.316523
0.272581
0.228794
0.18533
0.142371
0.100102
0.058707
0.0183659
-0.0207537
-0.058498
-0.0947348
-0.129351
-0.162252
-0.193371
-0.222658
-0.250082
-0.275631
-0.299306
-0.321126
-0.341118
-0.359322
-0.375784
-0.390559
-0.40371
-0.415302
-0.425402
-0.43408
-0.441402
-0.447431
-0.452227
-0.455841
-0.458321
-0.459707
-0.460037
-0.459347
-0.457668
-0.455033
-0.451471
-0.447013
-0.441684
-0.435506
-0.428495
-0.420668
-0.412059
-0.402711
-0.392668
-0.381966
-0.370618
-0.358611
-0.345925
-0.332561
-0.318532
-0.30387
-0.288613
-0.272783
-0.2564
-0.239487
-0.222076
-0.204199
-0.185885
-0.167178
-0.14816
-0.128914
-0.109527
-0.0901055
-0.0707389
-0.0515461
-0.0326451
-0.0141306
0.00394339
0.0213786
0.0382911
-0.0588505
-0.125934
-0.191829
-0.252093
-0.310811
-0.369952
-0.430306
-0.492902
-0.558941
-0.629564
-0.705791
-0.788525
-0.878551
-0.976535
-1.08301
-1.1984
-1.32301
-1.45704
-1.60064
-1.75391
-1.91691
-2.0897
-2.27234
-2.46488
-2.6674
-2.87997
-3.10269
-3.33563
-3.57886
-3.83246
-4.09644
-4.37081
-4.65552
-4.95043
-5.25534
-5.56996
-5.89387
-6.2265
-6.56715
-6.91491
-7.26868
-7.62716
-7.98877
-8.3517
-8.71387
-9.07291
-9.42618
-9.7708
-10.1036
-10.4213
-10.7203
-10.997
-11.2477
-11.4687
-11.6565
-11.8074
-11.9184
-11.9863
-12.0089
-11.9842
-11.9106
-11.7868
-11.6124
-11.3876
-11.1128
-10.7896
-10.4199
-10.0062
-9.55198
-9.06092
-8.53747
-7.98655
-7.41354
-6.82418
-6.22454
-5.62089
-5.01957
-4.42693
-3.84915
-3.29214
-2.76137
-2.26174
-1.79746
-1.37194
-0.987618
-0.645989
-0.347515
-0.0916929
0.122936
0.298739