/*--------------------------------*- C++ -*----------------------------------*\
  =========                 |
  \\      /  F ield         | OpenFOAM: The Open Source CFD Toolbox
   \\    /   O peration     | Website:  https://openfoam.org
    \\  /    A nd           | Version:  9
     \\/     M anipulation  |
\*---------------------------------------------------------------------------*/
FoamFile
{
    format      ascii;
    class       surfaceScalarField;
    location    "0.24";
    object      phi;
}
// * * * * * * * * * * * * * * * * * * * * * * * * * * * * * * * * * * * * * //

dimensions      [0 3 -1 0 0 0 0];

internalField   nonuniform List<scalar> 
24170
(
3.05628e-07
1.32122e-08
2.65401e-07
4.02275e-08
2.34086e-07
3.13145e-08
2.08827e-07
2.52593e-08
1.8896e-07
1.98675e-08
1.73362e-07
1.55974e-08
1.59956e-07
1.34065e-08
1.47357e-07
1.25992e-08
1.34947e-07
1.24092e-08
1.22538e-07
1.24089e-08
1.10147e-07
1.23918e-08
9.79144e-08
1.22322e-08
8.61152e-08
1.17992e-08
7.52719e-08
1.08432e-08
6.65385e-08
8.73341e-09
6.35176e-08
3.02092e-09
7.64539e-08
-1.29363e-08
4.30409e-08
3.3413e-08
3.45668e-07
9.26892e-09
3.36631e-07
4.92644e-08
3.20996e-07
4.69499e-08
3.0462e-07
4.16352e-08
2.8879e-07
3.56979e-08
2.73846e-07
3.05414e-08
2.59623e-07
2.76286e-08
2.45605e-07
2.66181e-08
2.31305e-07
2.67084e-08
2.16401e-07
2.73132e-08
2.00741e-07
2.80517e-08
1.84343e-07
2.86309e-08
1.67378e-07
2.87633e-08
1.50232e-07
2.79894e-08
1.33586e-07
2.53799e-08
1.19725e-07
1.68816e-08
1.03171e-07
3.61759e-09
8.25342e-08
6.36778e-08
3.64624e-07
1.08967e-08
3.65946e-07
4.79425e-08
3.59936e-07
5.29601e-08
3.50506e-07
5.10652e-08
3.39049e-07
4.7155e-08
3.26538e-07
4.30518e-08
3.13541e-07
4.06261e-08
3.00083e-07
4.00753e-08
2.85939e-07
4.08528e-08
2.70839e-07
4.24137e-08
2.54578e-07
4.43124e-08
2.3706e-07
4.61487e-08
2.18297e-07
4.75262e-08
1.98393e-07
4.7894e-08
1.77549e-07
4.62238e-08
1.55397e-07
3.90336e-08
1.26363e-07
3.26511e-08
1.12972e-07
9.59256e-08
3.9162e-07
1.18157e-08
3.94056e-07
4.55063e-08
3.91833e-07
5.51829e-08
3.86081e-07
5.68175e-08
3.77678e-07
5.55577e-08
3.67394e-07
5.33363e-08
3.55861e-07
5.21584e-08
3.43323e-07
5.2614e-08
3.29724e-07
5.44515e-08
3.1488e-07
5.72571e-08
2.98589e-07
6.0604e-08
2.80684e-07
6.40539e-08
2.61048e-07
6.71621e-08
2.39575e-07
6.93672e-08
2.16084e-07
6.97139e-08
1.89213e-07
6.59047e-08
1.55641e-07
6.62237e-08
1.39498e-07
1.29115e-07
4.20595e-07
1.19338e-08
4.22993e-07
4.31077e-08
4.22479e-07
5.56974e-08
4.18903e-07
6.0393e-08
4.12664e-07
6.17972e-08
4.04222e-07
6.1778e-08
3.94093e-07
6.22876e-08
3.82564e-07
6.4143e-08
3.69671e-07
6.73443e-08
3.55296e-07
7.16321e-08
3.39254e-07
7.66461e-08
3.21344e-07
8.19639e-08
3.01364e-07
8.71421e-08
2.79076e-07
9.16553e-08
2.54093e-07
9.46969e-08
2.24953e-07
9.50442e-08
1.90102e-07
1.01074e-07
1.64764e-07
1.64836e-07
4.51047e-07
1.17956e-08
4.53321e-07
4.08337e-08
4.53684e-07
5.53345e-08
4.51483e-07
6.25941e-08
4.46795e-07
6.64848e-08
4.39835e-07
6.87376e-08
4.30965e-07
7.11577e-08
4.20441e-07
7.46673e-08
4.08329e-07
7.94562e-08
3.94553e-07
8.54079e-08
3.78952e-07
9.22476e-08
3.61315e-07
9.9601e-08
3.41401e-07
1.07056e-07
3.18916e-07
1.1414e-07
2.93408e-07
1.20204e-07
2.63652e-07
1.248e-07
2.29284e-07
1.35442e-07
1.8955e-07
2.04498e-07
4.83434e-07
1.16341e-08
4.85526e-07
3.87408e-08
4.86319e-07
5.45422e-08
4.84988e-07
6.39252e-08
4.81412e-07
7.00602e-08
4.75629e-07
7.45208e-08
4.67858e-07
7.89287e-08
4.58293e-07
8.42325e-08
4.46998e-07
9.07517e-08
4.33918e-07
9.84874e-08
4.18916e-07
1.0725e-07
4.01793e-07
1.16724e-07
3.8231e-07
1.26539e-07
3.60178e-07
1.36272e-07
3.34978e-07
1.45404e-07
3.05828e-07
1.5395e-07
2.73147e-07
1.68124e-07
2.13816e-07
2.48882e-07
5.18101e-07
1.14915e-08
5.19936e-07
3.69054e-08
5.20884e-07
5.3594e-08
5.2009e-07
6.47199e-08
5.17308e-07
7.28415e-08
5.12456e-07
7.93731e-08
5.05636e-07
8.57488e-08
4.96973e-07
9.2895e-08
4.86514e-07
1.01211e-07
4.74214e-07
1.10787e-07
4.59962e-07
1.21502e-07
4.43585e-07
1.331e-07
4.24879e-07
1.45246e-07
4.03603e-07
1.57548e-07
3.7943e-07
1.69577e-07
3.51832e-07
1.81548e-07
3.21679e-07
1.98277e-07
2.37119e-07
2.98376e-07
5.55259e-07
1.13663e-08
5.56792e-07
3.53725e-08
5.57731e-07
5.26549e-08
5.57251e-07
6.51998e-08
5.55038e-07
7.5055e-08
5.50928e-07
8.3483e-08
5.44936e-07
9.17407e-08
5.37126e-07
1.00705e-07
5.27521e-07
1.10816e-07
5.16087e-07
1.22221e-07
5.02736e-07
1.34854e-07
4.87338e-07
1.48498e-07
4.69742e-07
1.62842e-07
4.49784e-07
1.77507e-07
4.27254e-07
1.92106e-07
4.0193e-07
2.06872e-07
3.74878e-07
2.25329e-07
2.5882e-07
3.53177e-07
5.95088e-07
1.12563e-08
5.96316e-07
3.41445e-08
5.97154e-07
5.18161e-08
5.96847e-07
6.55068e-08
5.95047e-07
7.68555e-08
5.91544e-07
8.69854e-08
5.86291e-07
9.69941e-08
5.79303e-07
1.07693e-07
5.70584e-07
1.19535e-07
5.60109e-07
1.32696e-07
5.47821e-07
1.47142e-07
5.33638e-07
1.6268e-07
5.17475e-07
1.79004e-07
4.99252e-07
1.9573e-07
4.78884e-07
2.12475e-07
4.56373e-07
2.29383e-07
4.32813e-07
2.4889e-07
2.78251e-07
4.13381e-07
6.3778e-07
1.11576e-08
6.38729e-07
3.31953e-08
6.39432e-07
5.11134e-08
6.39218e-07
6.57203e-08
6.37736e-07
7.83375e-08
6.34758e-07
8.99639e-08
6.30193e-07
1.01559e-07
6.24023e-07
1.13863e-07
6.16243e-07
1.27315e-07
6.06839e-07
1.421e-07
5.95787e-07
1.58194e-07
5.83059e-07
1.75408e-07
5.68638e-07
1.93426e-07
5.52524e-07
2.11844e-07
5.3474e-07
2.30258e-07
5.15442e-07
2.48682e-07
4.9564e-07
2.68691e-07
2.94837e-07
4.79054e-07
5.74165e-07
1.10757e-08
5.74782e-07
3.25785e-08
5.75278e-07
5.06172e-08
5.75151e-07
6.58475e-08
5.74114e-07
7.93749e-08
5.71976e-07
9.21022e-08
5.68643e-07
1.04892e-07
5.64086e-07
1.1842e-07
5.58298e-07
1.33103e-07
5.51281e-07
1.49116e-07
5.43043e-07
1.66432e-07
5.33599e-07
1.84851e-07
5.22984e-07
2.04041e-07
5.11252e-07
2.23575e-07
4.98489e-07
2.43021e-07
4.84899e-07
2.62272e-07
4.71239e-07
2.82351e-07
3.06249e-07
4.59827e-07
6.99904e-07
1.0987e-08
7.00474e-07
3.20084e-08
7.00957e-07
5.01345e-08
7.00882e-07
6.59224e-08
6.99948e-07
8.0309e-08
6.97943e-07
9.41075e-08
6.94754e-07
1.08081e-07
6.90339e-07
1.22835e-07
6.84694e-07
1.38748e-07
6.77839e-07
1.55971e-07
6.69813e-07
1.74458e-07
6.60677e-07
1.93988e-07
6.50516e-07
2.14202e-07
6.39444e-07
2.34647e-07
6.27607e-07
2.54858e-07
6.15274e-07
2.74605e-07
6.03195e-07
2.9443e-07
3.16129e-07
5.93315e-07
8.53197e-07
1.08746e-08
8.53746e-07
3.14597e-08
8.54271e-07
4.96095e-08
8.54347e-07
6.58463e-08
8.53677e-07
8.09787e-08
8.52044e-07
9.57411e-08
8.49323e-07
1.10801e-07
8.45472e-07
1.26687e-07
8.40496e-07
1.43723e-07
8.34443e-07
1.62025e-07
8.27393e-07
1.81508e-07
8.19461e-07
2.0192e-07
8.1079e-07
2.22873e-07
8.0155e-07
2.43888e-07
7.91939e-07
2.64469e-07
7.82257e-07
2.84288e-07
7.73176e-07
3.03511e-07
3.23079e-07
7.66226e-07
1.0401e-06
1.07007e-08
1.04073e-06
3.08282e-08
1.04146e-06
4.88718e-08
1.04194e-06
6.53762e-08
1.04186e-06
8.10543e-08
1.04103e-06
9.65675e-08
1.03934e-06
1.12496e-07
1.03674e-06
1.29286e-07
1.03326e-06
1.47198e-07
1.029e-06
1.66292e-07
1.02407e-06
1.86439e-07
1.01864e-06
2.07349e-07
1.0129e-06
2.28606e-07
1.00708e-06
2.49714e-07
1.00138e-06
2.70167e-07
9.96096e-07
2.8957e-07
9.91768e-07
3.07838e-07
3.25349e-07
9.89499e-07
1.26799e-06
1.0391e-08
1.26894e-06
2.98748e-08
1.27026e-06
4.75517e-08
1.27162e-06
6.40144e-08
1.27277e-06
7.99045e-08
1.27353e-06
9.58107e-08
1.2738e-06
1.1223e-07
1.27356e-06
1.29527e-07
1.27287e-06
1.47887e-07
1.27185e-06
1.67309e-07
1.27067e-06
1.87616e-07
1.26954e-06
2.08481e-07
1.26868e-06
2.29472e-07
1.2683e-06
2.50094e-07
1.26861e-06
2.69853e-07
1.26984e-06
2.88336e-07
1.27237e-06
3.05316e-07
3.20841e-07
1.27687e-06
1.5459e-06
9.8067e-09
1.54762e-06
2.81618e-08
1.5502e-06
4.49702e-08
1.55335e-06
6.08648e-08
1.55682e-06
7.64267e-08
1.56047e-06
9.2166e-08
1.5642e-06
1.08496e-07
1.56804e-06
1.25695e-07
1.57205e-06
1.43877e-07
1.57638e-06
1.62978e-07
1.58121e-06
1.82777e-07
1.58677e-06
2.02925e-07
1.59325e-06
2.22989e-07
1.60085e-06
2.42499e-07
1.6097e-06
2.60997e-07
1.61995e-06
2.78088e-07
1.63177e-06
2.93502e-07
3.07127e-07
1.64548e-06
1.88486e-06
8.70638e-09
1.88805e-06
2.49728e-08
1.89301e-06
4.00159e-08
1.89939e-06
5.44815e-08
1.90694e-06
6.888e-08
1.91548e-06
8.36265e-08
1.92493e-06
9.90405e-08
1.93531e-06
1.15315e-07
1.9467e-06
1.32491e-07
1.95922e-06
1.50455e-07
1.97305e-06
1.68953e-07
1.98834e-06
1.87632e-07
2.00525e-06
2.06079e-07
2.02389e-06
2.23862e-07
2.0443e-06
2.40579e-07
2.06651e-06
2.55882e-07
2.0905e-06
2.69514e-07
2.81322e-07
2.1163e-06
2.29835e-06
6.69181e-09
2.30411e-06
1.92079e-08
2.31311e-06
3.10171e-08
2.32485e-06
4.27476e-08
2.33893e-06
5.47943e-08
2.35512e-06
6.7436e-08
2.37329e-06
8.0872e-08
2.39341e-06
9.51964e-08
2.41552e-06
1.10379e-07
2.43971e-06
1.26265e-07
2.46607e-06
1.42592e-07
2.49469e-06
1.59019e-07
2.52559e-06
1.7517e-07
2.55879e-06
1.90667e-07
2.5942e-06
2.05169e-07
2.63169e-06
2.18393e-07
2.67107e-06
2.30128e-07
2.40239e-07
2.71216e-06
1.68302e-06
4.73941e-09
1.68859e-06
1.36374e-08
1.69724e-06
2.23679e-08
1.70843e-06
3.15616e-08
1.72176e-06
4.14661e-08
1.73698e-06
5.22101e-08
1.75398e-06
6.38765e-08
1.7727e-06
7.64703e-08
1.79318e-06
8.99052e-08
1.81544e-06
1.04003e-07
1.83953e-06
1.18504e-07
1.86546e-06
1.33088e-07
1.89322e-06
1.4741e-07
1.92275e-06
1.61133e-07
1.95396e-06
1.7396e-07
1.98671e-06
1.85648e-07
2.02081e-06
1.96021e-07
2.04974e-07
2.05608e-06
1.46545e-06
2.75053e-09
1.47124e-06
7.83816e-09
1.48018e-06
1.34343e-08
1.49155e-06
2.01874e-08
1.50491e-06
2.81045e-08
1.52e-06
3.71273e-08
1.53667e-06
4.72049e-08
1.5549e-06
5.82388e-08
1.57472e-06
7.00831e-08
1.59618e-06
8.25418e-08
1.61933e-06
9.5363e-08
1.64416e-06
1.08251e-07
1.67068e-06
1.20894e-07
1.69882e-06
1.32994e-07
1.72849e-06
1.4429e-07
1.75956e-06
1.54575e-07
1.79188e-06
1.63703e-07
1.71588e-07
1.82526e-06
1.27588e-06
8.86359e-10
1.28166e-06
2.05306e-09
1.29048e-06
4.61281e-09
1.30147e-06
9.20109e-09
1.31414e-06
1.54348e-08
1.32822e-06
2.30467e-08
1.34359e-06
3.18345e-08
1.36026e-06
4.15741e-08
1.37828e-06
5.20556e-08
1.39775e-06
6.30709e-08
1.41873e-06
7.43834e-08
1.44126e-06
8.57274e-08
1.46532e-06
9.68279e-08
1.49089e-06
1.07426e-07
1.51789e-06
1.17297e-07
1.54619e-06
1.26269e-07
1.57567e-06
1.34221e-07
1.4109e-07
1.60617e-06
1.11065e-06
-6.6768e-10
1.11627e-06
-3.56667e-09
1.12472e-06
-3.84413e-09
1.13496e-06
-1.0339e-09
1.1465e-06
3.89591e-09
1.15907e-06
1.04776e-08
1.17257e-06
1.83285e-08
1.18708e-06
2.70685e-08
1.20271e-06
3.64238e-08
1.2196e-06
4.61859e-08
1.23784e-06
5.61431e-08
1.2575e-06
6.60677e-08
1.27859e-06
7.57288e-08
1.30111e-06
8.49107e-08
1.32498e-06
9.34302e-08
1.3501e-06
1.01147e-07
1.37635e-06
1.07969e-07
1.1385e-07
1.40359e-06
9.66595e-07
-1.74101e-09
9.71977e-07
-8.94918e-09
9.79905e-07
-1.17717e-08
9.8915e-07
-1.02795e-08
9.99271e-07
-6.22454e-09
1.00999e-06
-2.45126e-10
1.02129e-06
7.03659e-09
1.0333e-06
1.50537e-08
1.04624e-06
2.34832e-08
1.06029e-06
3.21371e-08
1.07559e-06
4.08445e-08
1.09223e-06
4.94287e-08
1.11024e-06
5.77121e-08
1.12963e-06
6.55283e-08
1.15032e-06
7.27374e-08
1.17223e-06
7.9235e-08
1.19524e-06
8.49562e-08
8.98698e-08
1.21922e-06
8.4094e-07
-2.14545e-09
8.46138e-07
-1.41472e-08
8.53399e-07
-1.90334e-08
8.61427e-07
-1.83068e-08
8.69842e-07
-1.46397e-08
8.78405e-07
-8.80786e-09
8.87202e-07
-1.76098e-09
8.96518e-07
5.73771e-09
9.06645e-07
1.33565e-08
9.17817e-07
2.09655e-08
9.30205e-07
2.84557e-08
9.43914e-07
3.57195e-08
9.58984e-07
4.26421e-08
9.75402e-07
4.91104e-08
9.93111e-07
5.50292e-08
1.01202e-06
6.03292e-08
1.032e-06
6.49718e-08
6.89403e-08
1.05293e-06
7.30964e-07
-1.38075e-09
7.36335e-07
-1.95189e-08
7.42775e-07
-2.5473e-08
7.49235e-07
-2.47668e-08
7.55519e-07
-2.0924e-08
7.61521e-07
-1.481e-08
7.67544e-07
-7.78377e-09
7.74024e-07
-7.41835e-10
7.81336e-07
6.04456e-09
7.89742e-07
1.25587e-08
7.99422e-07
1.8776e-08
8.10462e-07
2.46795e-08
8.22883e-07
3.02209e-08
8.36655e-07
3.53384e-08
8.51707e-07
3.99776e-08
8.67936e-07
4.40998e-08
8.85219e-07
4.76894e-08
5.07434e-08
9.03416e-07
6.34025e-07
1.60119e-09
6.40294e-07
-2.57879e-08
6.45516e-07
-3.06951e-08
6.49769e-07
-2.90203e-08
6.53235e-07
-2.43897e-08
6.56138e-07
-1.77126e-08
6.59092e-07
-1.07379e-08
6.62678e-07
-4.32768e-09
6.67294e-07
1.42793e-09
6.73187e-07
6.66623e-09
6.80493e-07
1.147e-08
6.89242e-07
1.59306e-08
6.99409e-07
2.00535e-08
7.10931e-07
2.38164e-08
7.23714e-07
2.71945e-08
7.37644e-07
3.01703e-08
7.5259e-07
3.27434e-08
3.49265e-08
7.68406e-07
5.49409e-07
6.73859e-09
5.5651e-07
-3.28892e-08
5.58783e-07
-3.29677e-08
5.59327e-07
-2.95641e-08
5.58776e-07
-2.38393e-08
5.57848e-07
-1.6784e-08
5.57461e-07
-1.03506e-08
5.58201e-07
-5.06776e-09
5.60388e-07
-7.59072e-10
5.64147e-07
2.90712e-09
5.69511e-07
6.10623e-09
5.76403e-07
9.03823e-09
5.84735e-07
1.17219e-08
5.94402e-07
1.41493e-08
6.05287e-07
1.63088e-08
6.17264e-07
1.81934e-08
6.30203e-07
1.98042e-08
2.11667e-08
6.43963e-07
4.86549e-07
2.9501e-09
4.84931e-07
-3.12707e-08
4.78219e-07
-2.62561e-08
4.70553e-07
-2.18978e-08
4.63468e-07
-1.67548e-08
4.57659e-07
-1.0975e-08
4.53765e-07
-6.45688e-09
4.51943e-07
-3.24564e-09
4.5211e-07
-9.26087e-10
4.54218e-07
7.99346e-10
4.58071e-07
2.25372e-09
4.63475e-07
3.6343e-09
4.70283e-07
4.91337e-09
4.78364e-07
6.06797e-09
4.87587e-07
7.08605e-09
4.97815e-07
7.96531e-09
5.0892e-07
8.69972e-09
9.30657e-09
5.2078e-07
4.23218e-07
3.91947e-07
3.65691e-07
3.43793e-07
3.27038e-07
3.16063e-07
3.09606e-07
3.06361e-07
3.05435e-07
3.06234e-07
3.08488e-07
3.12122e-07
3.17035e-07
3.23103e-07
3.3019e-07
3.38155e-07
3.46855e-07
3.56161e-07
7.59498e-08
-7.59498e-08
1.95252e-07
-1.19302e-07
3.20358e-07
-1.25106e-07
4.36488e-07
-1.16131e-07
5.36986e-07
-1.00497e-07
6.18561e-07
-8.15754e-08
6.79514e-07
-6.09526e-08
7.18916e-07
-3.94021e-08
7.36366e-07
-1.74502e-08
7.31854e-07
4.51232e-09
7.05074e-07
2.67802e-08
6.61446e-07
4.36279e-08
6.06872e-07
5.45733e-08
5.47223e-07
5.96496e-08
4.87089e-07
6.01336e-08
4.29201e-07
5.78881e-08
3.74167e-07
5.50338e-08
3.20785e-07
5.33822e-08
2.66824e-07
5.39605e-08
2.09844e-07
5.698e-08
1.47712e-07
6.21328e-08
7.89849e-08
6.87267e-08
2.77891e-09
7.62059e-08
-8.19767e-08
8.47556e-08
-1.76111e-07
9.4134e-08
-2.79846e-07
1.03735e-07
-3.93229e-07
1.13383e-07
-5.16059e-07
1.2283e-07
-6.47879e-07
1.3182e-07
-7.87993e-07
1.40114e-07
-9.35498e-07
1.47505e-07
-1.08932e-06
1.53825e-07
-1.24828e-06
1.58953e-07
-1.41109e-06
1.62816e-07
-1.57648e-06
1.65385e-07
-1.74315e-06
1.66671e-07
-1.90986e-06
1.66717e-07
-2.07546e-06
1.65591e-07
-2.23883e-06
1.63375e-07
-2.39899e-06
1.60162e-07
-2.55504e-06
1.56045e-07
-2.70615e-06
1.51113e-07
-2.8516e-06
1.45449e-07
-2.99072e-06
1.39124e-07
-3.12292e-06
1.322e-07
-3.24765e-06
1.24724e-07
-3.36438e-06
1.16731e-07
-3.47262e-06
1.08246e-07
-3.57191e-06
9.92857e-08
-3.66177e-06
8.98561e-08
-3.74172e-06
7.99588e-08
-3.81132e-06
6.9595e-08
-3.87009e-06
5.87664e-08
-3.91756e-06
4.74736e-08
-3.95328e-06
3.57228e-08
-3.97685e-06
2.35705e-08
-3.98806e-06
1.12099e-08
-3.98704e-06
-1.02757e-09
-3.97537e-06
-1.16641e-08
-3.95363e-06
-2.17375e-08
-3.92218e-06
-3.1452e-08
-3.88118e-06
-4.09983e-08
-3.83074e-06
-5.04427e-08
-3.77096e-06
-5.97845e-08
-3.70197e-06
-6.89896e-08
-3.62396e-06
-7.80067e-08
-3.53719e-06
-8.67742e-08
-3.44196e-06
-9.5224e-08
-3.33868e-06
-1.03284e-07
-3.2278e-06
-1.10878e-07
-3.10987e-06
-1.17929e-07
-2.98551e-06
-1.24362e-07
-2.85541e-06
-1.30098e-07
-2.72035e-06
-1.35065e-07
-2.58116e-06
-1.39191e-07
-2.43874e-06
-1.42413e-07
-2.29407e-06
-1.44672e-07
-2.14815e-06
-1.4592e-07
-2.00203e-06
-1.46119e-07
-1.85679e-06
-1.45243e-07
-1.71351e-06
-1.43282e-07
-1.57327e-06
-1.40242e-07
-1.43712e-06
-1.36147e-07
-1.30608e-06
-1.31039e-07
-1.1811e-06
-1.24982e-07
-1.06304e-06
-1.18058e-07
-9.52673e-07
-1.10368e-07
-8.50643e-07
-1.0203e-07
-7.57464e-07
-9.31789e-08
-6.73504e-07
-8.396e-08
-5.98976e-07
-7.45287e-08
-5.3393e-07
-6.5046e-08
-4.78256e-07
-5.56735e-08
-4.31687e-07
-4.6569e-08
-3.93808e-07
-3.78794e-08
-3.64073e-07
-2.97352e-08
-3.41828e-07
-2.22445e-08
-3.26339e-07
-1.54891e-08
-3.16809e-07
-9.52995e-09
-3.12361e-07
-4.44774e-09
-3.1256e-07
1.99164e-10
-3.16533e-07
3.97286e-09
-3.24012e-07
7.47855e-09
-3.3454e-07
1.05285e-08
-3.47675e-07
1.31347e-08
-3.63001e-07
1.53261e-08
-3.80137e-07
1.71363e-08
-3.98735e-07
1.8598e-08
-4.18477e-07
1.97413e-08
-4.39071e-07
2.05939e-08
-4.60252e-07
2.11815e-08
-4.8178e-07
2.15281e-08
-5.03437e-07
2.16569e-08
-5.25027e-07
2.15899e-08
-5.46375e-07
2.13482e-08
-5.67327e-07
2.09517e-08
-5.87746e-07
2.04194e-08
-6.07515e-07
1.97686e-08
-6.26531e-07
1.90157e-08
-6.44705e-07
1.8175e-08
-6.61965e-07
1.72597e-08
-6.78246e-07
1.62812e-08
-6.93496e-07
1.52497e-08
-7.0767e-07
1.41737e-08
-7.2073e-07
1.30604e-08
-7.32646e-07
1.19155e-08
-7.43389e-07
1.07435e-08
-7.52937e-07
9.54794e-09
-7.61268e-07
8.33078e-09
-7.68361e-07
7.09285e-09
-7.74194e-07
5.83335e-09
-7.78744e-07
4.54999e-09
-7.81983e-07
3.23939e-09
-7.8389e-07
1.9065e-09
-7.84436e-07
5.45607e-10
-7.83706e-07
-7.29607e-10
-7.81745e-07
-1.96069e-09
-7.78573e-07
-3.17204e-09
-7.74196e-07
-4.37689e-09
-7.68619e-07
-5.57726e-09
-7.61847e-07
-6.77232e-09
-7.53887e-07
-7.95943e-09
-7.44755e-07
-9.13266e-09
-7.34479e-07
-1.02752e-08
-7.23127e-07
-1.13527e-08
-7.1078e-07
-1.23465e-08
-6.97458e-07
-1.33223e-08
-6.82992e-07
-1.44659e-08
-6.67381e-07
-1.56113e-08
-6.46825e-07
-2.05556e-08
-6.26888e-07
-1.99377e-08
-6.09419e-07
-1.74685e-08
-5.88785e-07
-2.06342e-08
-5.68441e-07
-2.03437e-08
-5.47217e-07
-2.12239e-08
-5.21886e-07
-2.53309e-08
-4.96605e-07
-2.52813e-08
-4.71388e-07
-2.52169e-08
-4.44522e-07
-2.68657e-08
-4.17094e-07
-2.74289e-08
-3.88893e-07
-2.82006e-08
-3.58776e-07
-3.01168e-08
-3.2828e-07
-3.04964e-08
-2.96799e-07
-3.1481e-08
-2.63508e-07
-3.32905e-08
-2.30375e-07
-3.31332e-08
-1.95724e-07
-3.46508e-08
-1.5982e-07
-3.59043e-08
-1.23848e-07
-3.59722e-08
-8.71159e-08
-3.67321e-08
-5.0088e-08
-3.70279e-08
-1.28133e-08
-3.72747e-08
2.36413e-08
-3.64546e-08
5.95949e-08
-3.59535e-08
9.47376e-08
-3.51427e-08
1.2858e-07
-3.38428e-08
1.59402e-07
-3.08219e-08
1.86664e-07
-2.72618e-08
2.07945e-07
-2.12809e-08
-1.04489e-08
2.18394e-07
1.21021e-07
-1.96971e-07
2.23153e-07
-2.21434e-07
3.00357e-07
-2.0231e-07
3.5861e-07
-1.74384e-07
4.01044e-07
-1.42931e-07
4.29281e-07
-1.09813e-07
4.44402e-07
-7.60736e-08
4.47368e-07
-4.23678e-08
4.38968e-07
-9.0501e-09
4.20423e-07
2.3057e-08
3.9368e-07
5.35231e-08
3.56797e-07
8.05118e-08
3.09139e-07
1.02231e-07
2.50916e-07
1.17873e-07
1.8286e-07
1.2819e-07
1.05542e-07
1.35206e-07
1.92151e-08
1.4136e-07
-7.60158e-08
1.48613e-07
-1.80154e-07
1.58098e-07
-2.9324e-07
1.70067e-07
-4.15266e-07
1.84159e-07
-5.46254e-07
1.99714e-07
-6.86099e-07
2.16052e-07
-8.33985e-07
2.32641e-07
-9.88853e-07
2.49003e-07
-1.14973e-06
2.64613e-07
-1.31534e-06
2.78989e-07
-1.48422e-06
2.9171e-07
-1.65484e-06
3.02442e-07
-1.82567e-06
3.10946e-07
-1.99524e-06
3.17075e-07
-2.16219e-06
3.20772e-07
-2.3253e-06
3.22064e-07
-2.48353e-06
3.21046e-07
-2.63601e-06
3.17864e-07
-2.78204e-06
3.12706e-07
-2.92111e-06
3.05779e-07
-3.05281e-06
2.97297e-07
-3.17691e-06
2.87472e-07
-3.29325e-06
2.76499e-07
-3.40176e-06
2.64556e-07
-3.50244e-06
2.51795e-07
-3.59533e-06
2.3834e-07
-3.6805e-06
2.24294e-07
-3.75804e-06
2.09734e-07
-3.82803e-06
1.94715e-07
-3.89057e-06
1.79276e-07
-3.94577e-06
1.63443e-07
-3.99372e-06
1.47233e-07
-4.03452e-06
1.30657e-07
-4.06829e-06
1.13728e-07
-4.09515e-06
9.64628e-08
-4.11527e-06
7.88853e-08
-4.12883e-06
6.10356e-08
-4.13609e-06
4.29815e-08
-4.13735e-06
2.48293e-08
-4.13284e-06
6.70131e-09
-4.12242e-06
-1.14502e-08
-4.10443e-06
-2.96573e-08
-4.07805e-06
-4.81181e-08
-4.0428e-06
-6.66954e-08
-3.9985e-06
-8.53046e-08
-3.94507e-06
-1.03871e-07
-3.88255e-06
-1.22307e-07
-3.81103e-06
-1.4051e-07
-3.73067e-06
-1.58364e-07
-3.6417e-06
-1.7574e-07
-3.54442e-06
-1.92502e-07
-3.4392e-06
-2.08506e-07
-3.32648e-06
-2.23603e-07
-3.20676e-06
-2.37643e-07
-3.08065e-06
-2.50473e-07
-2.9488e-06
-2.61946e-07
-2.81195e-06
-2.71916e-07
-2.6709e-06
-2.80246e-07
-2.5265e-06
-2.86809e-07
-2.37968e-06
-2.91493e-07
-2.2314e-06
-2.94201e-07
-2.08266e-06
-2.94859e-07
-1.93448e-06
-2.93416e-07
-1.78792e-06
-2.89849e-07
-1.64399e-06
-2.84167e-07
-1.50373e-06
-2.76411e-07
-1.36811e-06
-2.66659e-07
-1.23806e-06
-2.55026e-07
-1.11446e-06
-2.41664e-07
-9.98065e-07
-2.26761e-07
-8.8956e-07
-2.10536e-07
-7.895e-07
-1.93238e-07
-6.9832e-07
-1.7514e-07
-6.16319e-07
-1.5653e-07
-5.4366e-07
-1.37705e-07
-4.80371e-07
-1.18962e-07
-4.26347e-07
-1.00593e-07
-3.81356e-07
-8.28701e-08
-3.45053e-07
-6.60384e-08
-3.16989e-07
-5.03088e-08
-2.96631e-07
-3.58472e-08
-2.83392e-07
-2.27684e-08
-2.76729e-07
-1.11109e-08
-2.75742e-07
-7.87835e-10
-2.79991e-07
8.22163e-09
-2.88532e-07
1.60193e-08
-3.00681e-07
2.26776e-08
-3.15823e-07
2.82769e-08
-3.33405e-07
3.29082e-08
-3.52932e-07
3.66629e-08
-3.73961e-07
3.96277e-08
-3.96103e-07
4.18828e-08
-4.1901e-07
4.35012e-08
-4.42378e-07
4.45498e-08
-4.6594e-07
4.50901e-08
-4.89462e-07
4.51787e-08
-5.12741e-07
4.48683e-08
-5.356e-07
4.42078e-08
-5.57891e-07
4.32421e-08
-5.79484e-07
4.20127e-08
-6.00273e-07
4.05575e-08
-6.20168e-07
3.89107e-08
-6.39095e-07
3.71026e-08
-6.56996e-07
3.51603e-08
-6.73822e-07
3.31073e-08
-6.89537e-07
3.09642e-08
-7.04111e-07
2.87482e-08
-7.17525e-07
2.6474e-08
-7.29763e-07
2.41537e-08
-7.40816e-07
2.17971e-08
-7.50681e-07
1.94121e-08
-7.59355e-07
1.7005e-08
-7.66843e-07
1.45805e-08
-7.73152e-07
1.21427e-08
-7.78298e-07
9.69569e-09
-7.82304e-07
7.24576e-09
-7.85201e-07
4.80308e-09
-7.87031e-07
2.37635e-09
-7.87744e-07
-1.67905e-11
-7.87309e-07
-2.39595e-09
-7.85719e-07
-4.76224e-09
-7.82976e-07
-7.11982e-09
-7.79083e-07
-9.47022e-09
-7.74042e-07
-1.1813e-08
-7.67856e-07
-1.41458e-08
-7.60525e-07
-1.64632e-08
-7.52047e-07
-1.87529e-08
-7.42402e-07
-2.09978e-08
-7.31544e-07
-2.32051e-08
-7.19404e-07
-2.54623e-08
-7.05922e-07
-2.79474e-08
-6.90654e-07
-3.08793e-08
-6.76015e-07
-3.51948e-08
-6.59522e-07
-3.64311e-08
-6.40509e-07
-3.64816e-08
-6.21964e-07
-3.91787e-08
-6.01724e-07
-4.0584e-08
-5.7972e-07
-4.32272e-08
-5.57884e-07
-4.71673e-08
-5.34112e-07
-4.90536e-08
-5.08739e-07
-5.059e-08
-4.82658e-07
-5.29464e-08
-4.55309e-07
-5.47781e-08
-4.26644e-07
-5.68657e-08
-3.97262e-07
-5.94985e-08
-3.66447e-07
-6.13114e-08
-3.34322e-07
-6.36061e-08
-3.01769e-07
-6.58437e-08
-2.68044e-07
-6.68581e-08
-2.3297e-07
-6.97244e-08
-1.97606e-07
-7.12683e-08
-1.60801e-07
-7.27767e-08
-1.23248e-07
-7.4286e-08
-8.56207e-08
-7.46547e-08
-4.74148e-08
-7.54807e-08
-8.88344e-09
-7.4986e-08
2.88404e-08
-7.36774e-08
6.55222e-08
-7.18245e-08
1.00697e-07
-6.90175e-08
1.33954e-07
-6.40788e-08
1.63862e-07
-5.71697e-08
1.89322e-07
-4.67414e-08
-3.1349e-08
2.10222e-07
8.25938e-08
-2.79564e-07
1.33523e-07
-2.72363e-07
1.65353e-07
-2.34141e-07
1.83366e-07
-1.92397e-07
1.90082e-07
-1.49647e-07
1.8683e-07
-1.06561e-07
1.74386e-07
-6.36296e-08
1.53315e-07
-2.12965e-08
1.24249e-07
2.00156e-08
8.74984e-08
5.98074e-08
4.37105e-08
9.7311e-08
-7.22589e-09
1.31448e-07
-6.61947e-08
1.61199e-07
-1.34596e-07
1.86274e-07
-2.13842e-07
2.07435e-07
-3.04843e-07
2.26208e-07
-4.07734e-07
2.44251e-07
-5.21927e-07
2.62806e-07
-6.46283e-07
2.82454e-07
-7.79376e-07
3.03159e-07
-9.1969e-07
3.24473e-07
-1.06573e-06
3.45755e-07
-1.21602e-06
3.6634e-07
-1.369e-06
3.85621e-07
-1.52307e-06
4.03076e-07
-1.67672e-06
4.18258e-07
-1.82855e-06
4.30822e-07
-1.97737e-06
4.4053e-07
-2.12219e-06
4.47262e-07
-2.26225e-06
4.51004e-07
-2.39701e-06
4.51835e-07
-2.52615e-06
4.4991e-07
-2.64952e-06
4.45436e-07
-2.76713e-06
4.38658e-07
-2.8791e-06
4.29834e-07
-2.98562e-06
4.19225e-07
-3.08692e-06
4.07078e-07
-3.18324e-06
3.93621e-07
-3.27482e-06
3.79051e-07
-3.36186e-06
3.63537e-07
-3.44451e-06
3.47212e-07
-3.5229e-06
3.30181e-07
-3.59708e-06
3.12518e-07
-3.66705e-06
2.94272e-07
-3.73279e-06
2.75471e-07
-3.7942e-06
2.56126e-07
-3.85116e-06
2.36233e-07
-3.9035e-06
2.15784e-07
-3.95103e-06
1.94764e-07
-3.99353e-06
1.73159e-07
-4.03077e-06
1.50961e-07
-4.06247e-06
1.28166e-07
-4.08836e-06
1.0478e-07
-4.10815e-06
8.08183e-08
-4.12147e-06
5.6307e-08
-4.12792e-06
3.12798e-08
-4.12698e-06
5.75497e-09
-4.11815e-06
-2.02778e-08
-4.10097e-06
-4.68352e-08
-4.07525e-06
-7.38405e-08
-4.04079e-06
-1.01158e-07
-3.99744e-06
-1.28646e-07
-3.94516e-06
-1.56161e-07
-3.88392e-06
-1.83544e-07
-3.8138e-06
-2.10628e-07
-3.73493e-06
-2.37229e-07
-3.64752e-06
-2.63151e-07
-3.55184e-06
-2.88188e-07
-3.44822e-06
-3.12125e-07
-3.33708e-06
-3.3474e-07
-3.21891e-06
-3.5581e-07
-3.09428e-06
-3.75109e-07
-2.96381e-06
-3.92417e-07
-2.8282e-06
-4.07519e-07
-2.68824e-06
-4.20211e-07
-2.54474e-06
-4.30305e-07
-2.3986e-06
-4.37632e-07
-2.25076e-06
-4.42049e-07
-2.10217e-06
-4.43443e-07
-1.95385e-06
-4.41736e-07
-1.80681e-06
-4.36889e-07
-1.66207e-06
-4.28909e-07
-1.52063e-06
-4.17853e-07
-1.38346e-06
-4.03828e-07
-1.25149e-06
-3.86994e-07
-1.12559e-06
-3.67566e-07
-1.00654e-06
-3.45811e-07
-8.95034e-07
-3.22041e-07
-7.91659e-07
-2.96614e-07
-6.96882e-07
-2.69917e-07
-6.11047e-07
-2.42365e-07
-5.3437e-07
-2.14382e-07
-4.66938e-07
-1.86394e-07
-4.08718e-07
-1.58814e-07
-3.59557e-07
-1.32031e-07
-3.19197e-07
-1.06398e-07
-2.87285e-07
-8.22213e-08
-2.6338e-07
-5.97524e-08
-2.46971e-07
-3.91766e-08
-2.37483e-07
-2.05996e-08
-2.34225e-07
-4.045e-09
-2.36513e-07
1.05094e-08
-2.43608e-07
2.31137e-08
-2.54791e-07
3.38609e-08
-2.69388e-07
4.28742e-08
-2.86775e-07
5.02947e-08
-3.06383e-07
5.62713e-08
-3.27706e-07
6.09506e-08
-3.50295e-07
6.44719e-08
-3.73758e-07
6.69644e-08
-3.97755e-07
6.85462e-08
-4.2199e-07
6.93251e-08
-4.4621e-07
6.93993e-08
-4.702e-07
6.88577e-08
-4.93774e-07
6.77818e-08
-5.16777e-07
6.62452e-08
-5.39079e-07
6.43146e-08
-5.60571e-07
6.20499e-08
-5.81165e-07
5.95047e-08
-6.00789e-07
5.67266e-08
-6.19386e-07
5.37573e-08
-6.36912e-07
5.0633e-08
-6.53333e-07
4.73853e-08
-6.68626e-07
4.40406e-08
-6.82773e-07
4.06217e-08
-6.95767e-07
3.71472e-08
-7.07603e-07
3.36328e-08
-7.18281e-07
3.00909e-08
-7.27808e-07
2.65319e-08
-7.36192e-07
2.29642e-08
-7.43444e-07
1.93948e-08
-7.49579e-07
1.58305e-08
-7.54611e-07
1.22781e-08
-7.58553e-07
8.74445e-09
-7.61409e-07
5.23267e-09
-7.63169e-07
1.74325e-09
-7.63834e-07
-1.73084e-09
-7.63406e-07
-5.1901e-09
-7.61889e-07
-8.63697e-09
-7.59286e-07
-1.20733e-08
-7.55599e-07
-1.54997e-08
-7.50829e-07
-1.8916e-08
-7.44973e-07
-2.23197e-08
-7.38019e-07
-2.57064e-08
-7.29942e-07
-2.90749e-08
-7.20699e-07
-3.24481e-08
-7.10258e-07
-3.59028e-08
-6.98634e-07
-3.95713e-08
-6.85912e-07
-4.3602e-08
-6.73171e-07
-4.79353e-08
-6.58867e-07
-5.07348e-08
-6.42348e-07
-5.30007e-08
-6.2525e-07
-5.6277e-08
-6.06523e-07
-5.9311e-08
-5.86651e-07
-6.3099e-08
-5.66495e-07
-6.73232e-08
-5.4489e-07
-7.06586e-08
-5.21802e-07
-7.36782e-08
-4.97618e-07
-7.71302e-08
-4.72e-07
-8.03961e-08
-4.45112e-07
-8.37541e-08
-4.17263e-07
-8.73473e-08
-3.88043e-07
-9.05318e-08
-3.57644e-07
-9.40049e-08
-3.26351e-07
-9.71369e-08
-2.93557e-07
-9.96514e-08
-2.60017e-07
-1.03264e-07
-2.25535e-07
-1.0575e-07
-1.90063e-07
-1.08249e-07
-1.53834e-07
-1.10514e-07
-1.16856e-07
-1.11633e-07
-7.96789e-08
-1.12658e-07
-4.20397e-08
-1.12625e-07
-4.58121e-09
-1.11136e-07
3.21089e-08
-1.08515e-07
6.75738e-08
-1.04482e-07
1.01523e-07
-9.80282e-08
1.32885e-07
-8.85319e-08
1.61116e-07
-7.49725e-08
-5.67113e-08
1.86479e-07
2.547e-08
-3.05034e-07
2.84464e-08
-2.75339e-07
2.30424e-08
-2.28737e-07
1.03671e-08
-1.79722e-07
-9.22343e-09
-1.30056e-07
-3.55034e-08
-8.02813e-08
-6.83297e-08
-3.08034e-08
-1.07606e-07
1.79803e-08
-1.53231e-07
6.56397e-08
-2.05058e-07
1.11635e-07
-2.63037e-07
1.5529e-07
-3.2749e-07
1.95902e-07
-3.99284e-07
2.32993e-07
-4.79605e-07
2.66596e-07
-5.69479e-07
2.97308e-07
-6.6931e-07
3.26039e-07
-7.78704e-07
3.53645e-07
-8.96547e-07
3.8065e-07
-1.02125e-06
4.07156e-07
-1.151e-06
4.32909e-07
-1.28396e-06
4.57439e-07
-1.41842e-06
4.8021e-07
-1.5528e-06
5.00719e-07
-1.68573e-06
5.18557e-07
-1.81608e-06
5.33422e-07
-1.94295e-06
5.45127e-07
-2.06572e-06
5.53595e-07
-2.18404e-06
5.5885e-07
-2.29778e-06
5.61e-07
-2.407e-06
5.60219e-07
-2.51189e-06
5.56729e-07
-2.61276e-06
5.50776e-07
-2.70994e-06
5.4262e-07
-2.8038e-06
5.32515e-07
-2.89466e-06
5.20699e-07
-2.98283e-06
5.07389e-07
-3.06852e-06
4.92775e-07
-3.15191e-06
4.77012e-07
-3.23309e-06
4.60227e-07
-3.31207e-06
4.42515e-07
-3.3888e-06
4.23943e-07
-3.46317e-06
4.0455e-07
-3.53501e-06
3.84357e-07
-3.6041e-06
3.63361e-07
-3.67017e-06
3.41549e-07
-3.73294e-06
3.18894e-07
-3.79207e-06
2.95365e-07
-3.84722e-06
2.70926e-07
-3.898e-06
2.45543e-07
-3.94402e-06
2.19187e-07
-3.9849e-06
1.91834e-07
-4.0202e-06
1.6347e-07
-4.04951e-06
1.34092e-07
-4.0724e-06
1.03711e-07
-4.08845e-06
7.23484e-08
-4.0972e-06
4.00391e-08
-4.09828e-06
6.82781e-09
-4.09131e-06
-2.72437e-08
-4.07605e-06
-6.20993e-08
-4.05228e-06
-9.76128e-08
-4.01982e-06
-1.33616e-07
-3.97854e-06
-1.69925e-07
-3.92836e-06
-2.06339e-07
-3.86926e-06
-2.42643e-07
-3.80129e-06
-2.78603e-07
-3.72454e-06
-3.13972e-07
-3.63921e-06
-3.48485e-07
-3.54553e-06
-3.81868e-07
-3.44382e-06
-4.13833e-07
-3.33448e-06
-4.44085e-07
-3.21796e-06
-4.72328e-07
-3.09481e-06
-4.98262e-07
-2.96563e-06
-5.21593e-07
-2.83111e-06
-5.42035e-07
-2.69201e-06
-5.59316e-07
-2.54913e-06
-5.73186e-07
-2.40334e-06
-5.83416e-07
-2.25558e-06
-5.89814e-07
-2.1068e-06
-5.92225e-07
-1.95799e-06
-5.9054e-07
-1.81018e-06
-5.84701e-07
-1.66438e-06
-5.74711e-07
-1.5216e-06
-5.60633e-07
-1.38282e-06
-5.42602e-07
-1.249e-06
-5.20819e-07
-1.12101e-06
-4.95557e-07
-9.99662e-07
-4.67158e-07
-8.85678e-07
-4.36025e-07
-7.79674e-07
-4.02618e-07
-6.8215e-07
-3.67441e-07
-5.93483e-07
-3.31032e-07
-5.13922e-07
-2.93943e-07
-4.43589e-07
-2.56727e-07
-3.82483e-07
-2.19921e-07
-3.30484e-07
-1.8403e-07
-2.87368e-07
-1.49514e-07
-2.52813e-07
-1.16776e-07
-2.26416e-07
-8.61501e-08
-2.07693e-07
-5.78987e-08
-1.96093e-07
-3.21998e-08
-1.9099e-07
-9.14814e-09
-1.91708e-07
1.12271e-08
-1.97549e-07
2.89547e-08
-2.07808e-07
4.41203e-08
-2.21796e-07
5.68621e-08
-2.38857e-07
6.7355e-08
-2.5838e-07
7.5795e-08
-2.79815e-07
8.23855e-08
-3.0267e-07
8.73262e-08
-3.26512e-07
9.08067e-08
-3.50968e-07
9.30026e-08
-3.75718e-07
9.40746e-08
-4.00486e-07
9.4168e-08
-4.25043e-07
9.34144e-08
-4.49193e-07
9.19316e-08
-4.72773e-07
8.98256e-08
-4.9565e-07
8.71911e-08
-5.17712e-07
8.41124e-08
-5.38872e-07
8.06641e-08
-5.59057e-07
7.6912e-08
-5.78213e-07
7.29133e-08
-5.96298e-07