/*--------------------------------*- C++ -*----------------------------------*\
  =========                 |
  \\      /  F ield         | OpenFOAM: The Open Source CFD Toolbox
   \\    /   O peration     | Website:  https://openfoam.org
    \\  /    A nd           | Version:  9
     \\/     M anipulation  |
\*---------------------------------------------------------------------------*/
FoamFile
{
    format      ascii;
    class       volVectorField;
    location    "0.24";
    object      U;
}
// * * * * * * * * * * * * * * * * * * * * * * * * * * * * * * * * * * * * * //

dimensions      [0 1 -1 0 0 0 0];

internalField   nonuniform List<vector> 
12225
(
(0.934543 -0.30475 0)
(0.897563 -0.0835394 0)
(0.796793 -0.000426302 0)
(0.69283 0.0125216 0)
(0.619162 0.0103942 0)
(0.566429 0.00772554 0)
(0.522483 0.00655703 0)
(0.482094 0.00634346 0)
(0.443056 0.00648637 0)
(0.40423 0.00668484 0)
(0.365312 0.00681555 0)
(0.326579 0.00681266 0)
(0.288719 0.00659265 0)
(0.252719 0.00596769 0)
(0.221598 0.00435936 0)
(0.19711 0.000224268 0)
(0.224269 -0.0166999 0)
(0.167003 0.0749241 0)
(1.02483 0.0806516 0)
(1.00244 0.0677927 0)
(0.964697 0.0364568 0)
(0.91576 0.0268182 0)
(0.86758 0.0226968 0)
(0.823033 0.0195565 0)
(0.780794 0.0179042 0)
(0.739729 0.0176272 0)
(0.69857 0.0181818 0)
(0.656057 0.0191336 0)
(0.611427 0.0201977 0)
(0.564489 0.021149 0)
(0.51556 0.0217393 0)
(0.465279 0.0215074 0)
(0.415581 0.0194649 0)
(0.366842 0.0103358 0)
(0.332587 -0.00825471 0)
(0.238103 0.0839066 0)
(0.999638 0.0214971 0)
(0.998892 0.0354981 0)
(0.993871 0.0349839 0)
(0.972274 0.0338618 0)
(0.942436 0.0315751 0)
(0.909406 0.0291518 0)
(0.874532 0.0280535 0)
(0.838469 0.0284506 0)
(0.800982 0.0299434 0)
(0.76127 0.0321334 0)
(0.718607 0.0346897 0)
(0.672561 0.0372903 0)
(0.623048 0.0395661 0)
(0.57016 0.0409131 0)
(0.514584 0.0400768 0)
(0.455059 0.0322808 0)
(0.391201 0.0215563 0)
(0.290686 0.121535 0)
(0.998198 0.00589342 0)
(1.00056 0.0287673 0)
(1.00366 0.036746 0)
(0.993337 0.0388569 0)
(0.974348 0.0386173 0)
(0.950221 0.0377357 0)
(0.922263 0.0377885 0)
(0.891552 0.0392573 0)
(0.858372 0.0419857 0)
(0.822322 0.0456878 0)
(0.782831 0.0500504 0)
(0.739403 0.0547132 0)
(0.6917 0.0592491 0)
(0.639418 0.0630144 0)
(0.58242 0.0647534 0)
(0.518924 0.0608805 0)
(0.444749 0.0598967 0)
(0.346872 0.159268 0)
(0.999191 0.00600417 0)
(1.00196 0.0284115 0)
(1.00677 0.0380404 0)
(1.00199 0.0421133 0)
(0.989788 0.0439721 0)
(0.972143 0.0449461 0)
(0.949917 0.0465243 0)
(0.924098 0.0493947 0)
(0.895138 0.0536228 0)
(0.862874 0.0590648 0)
(0.826889 0.0654761 0)
(0.786702 0.0725195 0)
(0.741845 0.0797778 0)
(0.691792 0.086654 0)
(0.635967 0.092065 0)
(0.572612 0.093819 0)
(0.497656 0.101897 0)
(0.406821 0.192726 0)
(0.999562 0.00729219 0)
(1.00219 0.0276217 0)
(1.00712 0.0381678 0)
(1.00534 0.0440956 0)
(0.997446 0.0479642 0)
(0.984445 0.0508634 0)
(0.966786 0.0541669 0)
(0.945213 0.058663 0)
(0.920154 0.0645873 0)
(0.891563 0.0719349 0)
(0.859139 0.080556 0)
(0.822452 0.0901784 0)
(0.781007 0.100442 0)
(0.734207 0.110843 0)
(0.681336 0.120536 0)
(0.620877 0.1285 0)
(0.550001 0.144304 0)
(0.468669 0.2243 0)
(0.999605 0.0075074 0)
(1.00192 0.02622 0)
(1.00643 0.037701 0)
(1.0062 0.0452843 0)
(1.00105 0.05097 0)
(0.991355 0.0557423 0)
(0.97728 0.0608421 0)
(0.959303 0.0670864 0)
(0.937755 0.0748316 0)
(0.912631 0.0841932 0)
(0.883711 0.0951203 0)
(0.850635 0.107425 0)
(0.812947 0.120824 0)
(0.770096 0.134917 0)
(0.721414 0.149085 0)
(0.665732 0.163101 0)
(0.601569 0.185247 0)
(0.530791 0.255345 0)
(0.99964 0.00735263 0)
(1.00154 0.0248514 0)
(1.00538 0.0370526 0)
(1.00588 0.0459945 0)
(1.00245 0.0532811 0)
(0.995117 0.0598128 0)
(0.983842 0.0666918 0)
(0.968882 0.0747244 0)
(0.950457 0.0843477 0)
(0.928567 0.0957725 0)
(0.903048 0.109038 0)
(0.873618 0.124039 0)
(0.839909 0.140572 0)
(0.801481 0.158322 0)
(0.757817 0.176848 0)
(0.708127 0.196358 0)
(0.652004 0.223536 0)
(0.591924 0.285601 0)
(0.999714 0.00722018 0)
(1.00119 0.0237207 0)
(1.00427 0.0363863 0)
(1.00502 0.0464188 0)
(1.00267 0.0551004 0)
(0.99704 0.0632466 0)
(0.987965 0.0718303 0)
(0.975542 0.0816273 0)
(0.959892 0.0931238 0)
(0.941008 0.1066 0)
(0.918775 0.12217 0)
(0.892989 0.139797 0)
(0.863392 0.15934 0)
(0.829686 0.180545 0)
(0.791545 0.203083 0)
(0.748531 0.22732 0)
(0.700931 0.258344 0)
(0.651179 0.314255 0)
(0.999796 0.00714062 0)
(1.00089 0.0228206 0)
(1.00324 0.0357726 0)
(1.004 0.046682 0)
(1.00233 0.0565683 0)
(0.997949 0.066169 0)
(0.990634 0.0763451 0)
(0.980369 0.0878322 0)
(0.967203 0.101141 0)
(0.951126 0.116599 0)
(0.932064 0.134369 0)
(0.909895 0.154468 0)
(0.884472 0.17679 0)
(0.855646 0.201112 0)
(0.823271 0.227158 0)
(0.787193 0.255266 0)
(0.748063 0.289099 0)
(0.707993 0.340427 0)
(0.999865 0.00707427 0)
(1.00065 0.0221117 0)
(1.00238 0.0352407 0)
(1.00303 0.0468536 0)
(1.00181 0.0577683 0)
(0.998396 0.0686558 0)
(0.992532 0.0802843 0)
(0.984145 0.0933448 0)
(0.973238 0.108354 0)
(0.959802 0.125662 0)
(0.943807 0.145464 0)
(0.925207 0.167802 0)
(0.90396 0.192582 0)
(0.880045 0.219583 0)
(0.853469 0.248531 0)
(0.824281 0.27964 0)
(0.793253 0.315393 0)
(0.762069 0.363289 0)
(0.999912 0.00702776 0)
(1.0005 0.0216221 0)
(1.00178 0.0348509 0)
(1.00232 0.0469809 0)
(1.00141 0.0586941 0)
(0.998725 0.07061 0)
(0.994011 0.0834283 0)
(0.98717 0.0977982 0)
(0.978185 0.114227 0)
(0.967057 0.133072 0)
(0.953794 0.154534 0)
(0.938413 0.178658 0)
(0.920953 0.205346 0)
(0.901487 0.234355 0)
(0.880122 0.265385 0)
(0.857028 0.298496 0)
(0.832972 0.335325 0)
(0.809269 0.38074 0)
(0.999951 0.00696742 0)
(1.0004 0.0212259 0)
(1.00136 0.0345123 0)
(1.00183 0.0470549 0)
(1.00121 0.0594376 0)
(0.999185 0.0722371 0)
(0.995523 0.0860958 0)
(0.990118 0.101622 0)
(0.982949 0.119304 0)
(0.974031 0.13949 0)
(0.963406 0.162374 0)
(0.951143 0.187991 0)
(0.937345 0.216218 0)
(0.922148 0.246787 0)
(0.905729 0.279354 0)
(0.888319 0.313823 0)
(0.870613 0.35117 0)
(0.853586 0.394443 0)
(0.999983 0.00690612 0)
(1.00035 0.0208702 0)
(1.00111 0.0341823 0)
(1.0016 0.0470759 0)
(1.00134 0.0600657 0)
(1.00005 0.0736924 0)
(0.997545 0.0885441 0)
(0.993717 0.105182 0)
(0.988553 0.124064 0)
(0.982089 0.145515 0)
(0.974401 0.169705 0)
(0.965602 0.196638 0)
(0.955843 0.226159 0)
(0.945304 0.257958 0)
(0.934193 0.291642 0)
(0.922761 0.326958 0)
(0.911566 0.364325 0)
(0.901226 0.405411 0)
(1.00001 0.00681826 0)
(1.00038 0.0205018 0)
(1.00111 0.0337801 0)
(1.00179 0.0469218 0)
(1.00205 0.060397 0)
(1.00167 0.0747162 0)
(1.00049 0.0904176 0)
(0.998439 0.108011 0)
(0.99552 0.12791 0)
(0.991787 0.150399 0)
(0.987343 0.175605 0)
(0.98233 0.20349 0)
(0.976924 0.233851 0)
(0.971318 0.266338 0)
(0.965718 0.300507 0)
(0.960341 0.335982 0)
(0.955591 0.372763 0)
(0.95176 0.411565 0)
(1.00003 0.00667047 0)
(1.00051 0.020014 0)
(1.00144 0.0331327 0)
(1.00257 0.0463461 0)
(1.00361 0.0600971 0)
(1.0044 0.0748663 0)
(1.00483 0.0911444 0)
(1.00484 0.109384 0)
(1.00447 0.129945 0)
(1.00377 0.153053 0)
(1.00288 0.17878 0)
(1.00193 0.207035 0)
(1.0011 0.237568 0)
(1.00057 0.269995 0)
(1.00049 0.303841 0)
(1.00104 0.338649 0)
(1.00245 0.374154 0)
(1.00477 0.410465 0)
(1.00006 0.00639494 0)
(1.00077 0.019187 0)
(1.00217 0.0318875 0)
(1.00407 0.0448627 0)
(1.00626 0.0585364 0)
(1.00859 0.073354 0)
(1.01099 0.0897558 0)
(1.01343 0.108133 0)
(1.01595 0.12878 0)
(1.01863 0.151859 0)
(1.02157 0.177378 0)
(1.02489 0.205195 0)
(1.02875 0.235024 0)
(1.03327 0.266462 0)
(1.03856 0.299032 0)
(1.0447 0.332252 0)
(1.05182 0.365725 0)
(1.05977 0.399236 0)
(1.0001 0.00587193 0)
(1.00119 0.0176434 0)
(1.00333 0.0294354 0)
(1.00639 0.041642 0)
(1.01012 0.0546643 0)
(1.01441 0.0689028 0)
(1.01919 0.0847396 0)
(1.02445 0.1025 0)
(1.03021 0.122409 0)
(1.03653 0.144564 0)
(1.0435 0.168917 0)
(1.0512 0.195285 0)
(1.05972 0.223361 0)
(1.06913 0.25275 0)
(1.07948 0.282998 0)
(1.09078 0.313645 0)
(1.10305 0.344265 0)
(1.11607 0.374521 0)
(1.00016 0.00491016 0)
(1.00178 0.0147902 0)
(1.00496 0.0248138 0)
(1.00952 0.035383 0)
(1.01519 0.0468567 0)
(1.0218 0.0595723 0)
(1.02928 0.073843 0)
(1.03761 0.0899231 0)
(1.04679 0.107972 0)
(1.05686 0.128032 0)
(1.06784 0.150017 0)
(1.0798 0.173724 0)
(1.09274 0.198851 0)
(1.10669 0.225031 0)
(1.12163 0.251862 0)
(1.1375 0.278937 0)
(1.15427 0.305877 0)
(1.17167 0.332351 0)
(1.00021 0.00364567 0)
(1.00234 0.0109695 0)
(1.00654 0.0185747 0)
(1.01252 0.026893 0)
(1.01987 0.0362252 0)
(1.02838 0.0468284 0)
(1.03797 0.0589372 0)
(1.04858 0.072734 0)
(1.06023 0.0883216 0)
(1.07292 0.105704 0)
(1.08669 0.124781 0)
(1.10156 0.14535 0)
(1.11752 0.167132 0)
(1.13456 0.189799 0)
(1.15263 0.213 0)
(1.17167 0.236391 0)
(1.19158 0.259655 0)
(1.21215 0.282516 0)
(1.00023 0.00239298 0)
(1.00276 0.00718784 0)
(1.00779 0.012473 0)
(1.01484 0.0187179 0)
(1.02336 0.02613 0)
(1.03311 0.0348689 0)
(1.04396 0.045084 0)
(1.05587 0.0568835 0)
(1.06886 0.0703163 0)
(1.08294 0.0853581 0)
(1.09817 0.101899 0)
(1.11455 0.119747 0)
(1.13208 0.138645 0)
(1.15076 0.158297 0)
(1.17051 0.178395 0)
(1.19128 0.198639 0)
(1.21296 0.21876 0)
(1.23538 0.238531 0)
(1.00022 0.00116304 0)
(1.00304 0.00334907 0)
(1.00881 0.00633635 0)
(1.01676 0.0106468 0)
(1.02614 0.0163286 0)
(1.03666 0.0234218 0)
(1.04822 0.0319771 0)
(1.06077 0.0420135 0)
(1.07436 0.0535215 0)
(1.08905 0.0664502 0)
(1.10491 0.0806858 0)
(1.12196 0.0960479 0)
(1.14024 0.112303 0)
(1.15972 0.129186 0)
(1.18035 0.146427 0)
(1.20207 0.163767 0)
(1.22477 0.180975 0)
(1.24829 0.197863 0)
(1.00015 4.07843e-05 0)
(1.00312 -0.000433616 0)
(1.00958 0.000380546 0)
(1.01825 0.00300647 0)
(1.02818 0.00723625 0)
(1.03907 0.0129876 0)
(1.05082 0.0201959 0)
(1.06342 0.0287685 0)
(1.07696 0.0386315 0)
(1.09158 0.0497105 0)
(1.10739 0.0618914 0)
(1.12445 0.0750091 0)
(1.14281 0.0888567 0)
(1.16247 0.103204 0)
(1.18338 0.117816 0)
(1.20548 0.132474 0)
(1.22866 0.146985 0)
(1.25278 0.161192 0)
(0.999996 -0.000906016 0)
(1.00291 -0.0041679 0)
(1.01007 -0.0052979 0)
(1.01932 -0.00400972 0)
(1.02945 -0.000895978 0)
(1.04025 0.00386931 0)
(1.05163 0.0100819 0)
(1.06365 0.0175095 0)
(1.07651 0.0260111 0)
(1.09043 0.0354963 0)
(1.10559 0.0458576 0)
(1.1221 0.0569517 0)
(1.14002 0.0686039 0)
(1.15939 0.0806211 0)
(1.18014 0.0928093 0)
(1.20222 0.104988 0)
(1.2255 0.117003 0)
(1.24986 0.128727 0)
(0.999704 -0.00134078 0)
(1.00231 -0.00777405 0)
(1.01029 -0.0106223 0)
(1.01989 -0.0102653 0)
(1.02972 -0.00787646 0)
(1.0398 -0.00370342 0)
(1.05008 0.00186894 0)
(1.06077 0.00844513 0)
(1.07224 0.0158265 0)
(1.08483 0.023924 0)
(1.09879 0.0326478 0)
(1.11428 0.0418886 0)
(1.13138 0.0515118 0)
(1.15011 0.0613669 0)
(1.17041 0.0713027 0)
(1.19221 0.0811797 0)
(1.21536 0.0908802 0)
(1.23973 0.100306 0)
(0.998849 -0.00020405 0)
(1.00094 -0.0105393 0)
(1.01014 -0.0152039 0)
(1.01965 -0.0155075 0)
(1.02827 -0.0134333 0)
(1.03655 -0.00944568 0)
(1.04468 -0.00420894 0)
(1.05309 0.00172284 0)
(1.06238 0.00813331 0)
(1.07302 0.0149576 0)
(1.08532 0.0221439 0)
(1.09944 0.029633 0)
(1.11546 0.0373395 0)
(1.13335 0.0451587 0)
(1.15306 0.0529829 0)
(1.17446 0.0607121 0)
(1.19738 0.0682651 0)
(1.22167 0.075571 0)
(0.99662 0.00188118 0)
(0.99819 -0.012075 0)
(1.00895 -0.0183647 0)
(1.01734 -0.0192553 0)
(1.02303 -0.0171441 0)
(1.02775 -0.0129835 0)
(1.03219 -0.00789733 0)
(1.03713 -0.00254917 0)
(1.0434 0.00289491 0)
(1.05155 0.00843708 0)
(1.06186 0.0140884 0)
(1.07444 0.0198592 0)
(1.08929 0.0257148 0)
(1.10632 0.0315942 0)
(1.12542 0.0374287 0)
(1.14642 0.0431526 0)
(1.16911 0.0487158 0)
(1.19332 0.0540765 0)
(0.994969 -0.0075589 0)
(0.995896 -0.0185925 0)
(1.00546 -0.021297 0)
(1.00913 -0.0213189 0)
(1.00844 -0.0186715 0)
(1.00667 -0.0140914 0)
(1.00526 -0.00913393 0)
(1.00537 -0.00446316 0)
(1.00785 -9.05761e-05 0)
(1.01314 0.00405431 0)
(1.02136 0.00811819 0)
(1.03242 0.012182 0)
(1.04616 0.016249 0)
(1.06242 0.0202895 0)
(1.08098 0.0242641 0)
(1.10163 0.0281323 0)
(1.12413 0.0318649 0)
(1.14829 0.0354448 0)
(1.01419 -0.0680447 0)
(1.00837 -0.0622135 0)
(0.99827 -0.0341247 0)
(0.982626 -0.0231172 0)
(0.966617 -0.0180015 0)
(0.953172 -0.0130558 0)
(0.943124 -0.0084939 0)
(0.937115 -0.00468466 0)
(0.935337 -0.00153397 0)
(0.937714 0.00115308 0)
(0.943957 0.00368983 0)
(0.953601 0.00618691 0)
(0.966292 0.00865283 0)
(0.981753 0.0110669 0)
(0.999718 0.0134055 0)
(1.01992 0.0156484 0)
(1.04204 0.0177759 0)
(1.06592 0.0197905 0)
(0.96729 0.25337 0)
(0.9715 0.0848189 0)
(0.915195 0.00999327 0)
(0.844816 -0.00638103 0)
(0.793888 -0.00690774 0)
(0.76217 -0.00442911 0)
(0.742631 -0.00219899 0)
(0.731438 -0.000634884 0)
(0.726816 0.000358423 0)
(0.726832 0.00108113 0)
(0.730477 0.00181104 0)
(0.737512 0.00259733 0)
(0.747724 0.00341979 0)
(0.760839 0.00424607 0)
(0.776543 0.00504972 0)
(0.794509 0.00581579 0)
(0.814386 0.00652592 0)
(0.835875 0.00720705 0)
(0.0375443 -0.0590057 -9.46024e-21)
(0.121148 -0.131598 7.95435e-21)
(0.227102 -0.162739 0)
(0.335874 -0.166029 0)
(0.433977 -0.153634 0)
(0.515977 -0.133076 -6.6466e-21)
(0.580098 -0.108392 0)
(0.625403 -0.0814872 0)
(0.652076 -0.0528834 0)
(0.659429 -0.0227604 0)
(0.644665 0.00670916 7.02911e-21)
(0.612211 0.0322611 0)
(0.567346 0.0511025 0)
(0.515341 0.0618061 0)
(0.461051 0.0645603 0)
(0.408047 0.0611138 7.82275e-21)
(0.35788 0.0543152 0)
(0.310111 0.0472299 0)
(0.262953 0.0424188 0)
(0.214129 0.0414154 0)
(0.161508 0.0442586 0)
(0.103412 0.049691 0)
(0.0387402 0.0560106 0)
(-0.0334078 0.0624169 1.15909e-20)
(-0.113697 0.0691796 -1.14021e-20)
(-0.202461 0.0765608 1.12476e-20)
(-0.300018 0.0845402 1.11314e-20)
(-0.406306 0.0929222 0)
(-0.521041 0.101448 0)
(-0.643713 0.109832 -1.10293e-20)
(-0.773609 0.11779 -1.10773e-20)
(-0.909843 0.125062 0)
(-1.0514 0.131427 0)
(-1.19717 0.136722 -1.14387e-20)
(-1.346 0.140835 0)
(-1.49672 0.143709 0)
(-1.64821 0.145337 1.20449e-20)
(-1.79937 0.145746 0)
(-1.94918 0.144993 1.25251e-20)
(-2.09669 0.143154 2.55496e-20)
(-2.24105 0.140311 0)
(-2.38148 0.13655 0)
(-2.51728 0.131952 0)
(-2.6478 0.126592 0)
(-2.77249 0.120531 0)
(-2.8908 0.113821 2.83574e-20)
(-3.00224 0.106505 2.87394e-20)
(-3.10635 0.0986111 2.90841e-20)
(-3.20268 0.0901643 0)
(-3.29079 0.0811842 -2.96463e-20)
(-3.37024 0.0716948 0)
(-3.44058 0.0617318 3.00164e-20)
(-3.50135 0.0513497 3.01216e-20)
(-3.55213 0.0406425 0)
(-3.59251 0.0297862 0)
(-3.62215 0.0190759 0)
(-3.64064 0.00893346 2.99588e-20)
(-3.64761 -0.000249957 0)
(-3.64353 -0.00829955 0)
(-3.63074 -0.0154474 0)
(-3.60887 -0.0222481 0)
(-3.57818 -0.0288711 0)
(-3.53875 -0.035374 0)
(-3.49064 -0.0417629 0)
(-3.43396 -0.0480191 0)
(-3.36882 -0.0541113 -2.44824e-20)
(-3.29541 -0.0600011 0)
(-3.21397 -0.0656455 0)
(-3.12481 -0.0709984 2.1055e-20)
(-3.0283 -0.0760116 1.97641e-20)
(-2.92489 -0.0806354 0)
(-2.8151 -0.0848197 -1.6999e-20)
(-2.69953 -0.0885147 1.55413e-20)
(-2.57883 -0.0916716 0)
(-2.45374 -0.0942434 -1.25231e-20)
(-2.32506 -0.0961868 0)
(-2.19364 -0.0974625 0)
(-2.06039 -0.0980368 7.90285e-21)
(-1.92627 -0.0978834 0)
(-1.79227 -0.0969845 -4.9e-21)
(-1.65938 -0.0953325 0)
(-1.52862 -0.0929316 2.07427e-21)
(-1.40098 -0.089799 7.57641e-22)
(-1.27745 -0.0859663 -4.80166e-22)
(-1.15895 -0.0814801 -3.25867e-21)
(-1.04633 -0.076403 5.36257e-21)
(-0.940374 -0.0708126 0)
(-0.841763 -0.0648013 0)
(-0.751057 -0.0584745 0)
(-0.668688 -0.0519487 1.1599e-20)
(-0.594949 -0.0453489 1.25864e-20)
(-0.529985 -0.0388044 -1.33477e-20)
(-0.473792 -0.0324447 0)
(-0.426215 -0.0263923 1.42276e-20)
(-0.386955 -0.0207565 1.4371e-20)
(-0.35558 -0.0156266 1.43372e-20)
(-0.33154 -0.0110667 0)
(-0.314196 -0.00711508 0)
(-0.302839 -0.00379026 0)
(-0.296734 -0.00109818 1.27858e-20)
(-0.29519 0.00106101 0)
(-0.297438 0.00314444 0)
(-0.303291 0.00496898 -1.06222e-20)
(-0.312261 0.00651335 0)
(-0.323934 0.00780136 0)
(-0.337907 0.00885724 -8.10233e-21)
(-0.35381 0.00970428 0)
(-0.371302 0.0103633 0)
(-0.39007 0.0108528 5.53485e-21)
(-0.409829 0.0111894 4.70445e-21)
(-0.430317 0.0113884 0)
(-0.451294 0.0114642 -3.11339e-21)
(-0.472543 0.0114306 0)
(-0.493868 0.0113006 1.63903e-21)
(-0.515091 0.0110864 0)
(-0.536054 0.0107995 3.00571e-22)
(-0.556617 0.0104505 -3.1409e-22)
(-0.576658 0.0100491 0)
(-0.596069 0.00960397 0)
(-0.614758 0.00912279 0)
(-0.632643 0.0086123 0)
(-0.649656 0.00807829 0)
(-0.665739 0.00752565 0)
(-0.680842 0.00695835 0)
(-0.694921 0.00637949 -3.88674e-21)
(-0.707942 0.00579134 4.1727e-21)
(-0.719872 0.00519538 0)
(-0.730682 0.00459246 0)
(-0.740347 0.00398301 0)
(-0.748843 0.003367 0)
(-0.756145 0.002744 1.02981e-20)
(-0.762227 0.0021139 0)
(-0.767062 0.00147849 -1.0715e-20)
(-0.770616 0.000846553 1.08585e-20)
(-0.772853 0.00023177 0)
(-0.773766 -0.000363533 0)
(-0.773487 -0.000916881 0)
(-0.772009 -0.00145579 -1.1052e-20)
(-0.769339 -0.00198651 -1.10188e-20)
(-0.765476 -0.00250989 0)
(-0.76042 -0.00302549 -1.08719e-20)
(-0.754173 -0.00353191 -1.07614e-20)
(-0.74674 -0.00402539 1.0628e-20)
(-0.738135 -0.0044943 0)
(-0.728384 -0.00491394 0)
(-0.717583 -0.00526883 1.00963e-20)
(-0.705894 -0.0056887 0)
(-0.693255 -0.00679359 0)
(-0.679016 -0.0098054 0)
(-0.661043 -0.0220416 0)
(-0.642452 -0.019159 -8.0027e-21)
(-0.624578 -0.00831717 -7.6947e-21)
(-0.606072 -0.00890149 0)
(-0.586778 -0.00301367 -7.35767e-21)
(-0.566138 -0.00310558 0)
(-0.543056 -0.0150406 0)
(-0.518781 -0.0155797 -6.83585e-21)
(-0.493746 -0.0144858 0)
(-0.467954 -0.0141804 -5.4672e-21)
(-0.44103 -0.011858 0)
(-0.413202 -0.0115583 0)
(-0.383757 -0.0132918 -4.30577e-21)
(-0.353761 -0.0127683 0)
(-0.321833 -0.0138608 -3.45375e-21)
(-0.289182 -0.0154158 0)
(-0.256211 -0.0115253 0)
(-0.220009 -0.0128408 0)
(-0.184979 -0.0155061 1.74194e-21)
(-0.147445 -0.0132617 0)
(-0.109599 -0.0156459 -8.46007e-22)
(-0.0719667 -0.0149268 0)
(-0.0325997 -0.0142046 0)
(0.00614486 -0.0146638 0)
(0.0437145 -0.0143617 0)
(0.0814617 -0.0140025 0)
(0.117947 -0.0135703 0)
(0.153037 -0.0117555 0)
(0.18387 -0.0104368 -3.11261e-21)
(0.210825 -0.00859068 0)
(0.227715 -0.00386777 0)
(0.0731518 -0.276892 2.43141e-20)
(0.158868 -0.348462 -1.80708e-20)
(0.233815 -0.333052 0)
(0.294547 -0.293524 9.88217e-21)
(0.339794 -0.24463 0)
(0.371264 -0.191709 4.5078e-21)
(0.390577 -0.137349 -9.67921e-21)
(0.398658 -0.0829188 -9.88922e-21)
(0.395948 -0.0292088 0)
(0.383923 0.0224349 -1.03407e-20)
(0.365145 0.069024 -5.17626e-21)
(0.337491 0.107037 0)
(0.299924 0.13382 0)
(0.252391 0.148854 0)
(0.195615 0.154321 0)
(0.130409 0.15447 -5.47721e-21)
(0.0572271 0.153965 0)
(-0.02376 0.156321 1.07172e-20)
(-0.112747 0.163268 0)
(-0.209747 0.17486 0)
(-0.314885 0.190269 -1.00276e-20)
(-0.428274 0.208311 0)
(-0.549884 0.227867 9.89869e-21)
(-0.679206 0.248098 -5.24065e-21)
(-0.815442 0.268401 5.25703e-21)
(-0.957715 0.288186 -5.2961e-21)
(-1.105 0.306823 -5.35941e-21)
(-1.25606 0.323715 0)
(-1.40954 0.33836 0)
(-1.56407 0.350372 5.70551e-21)
(-1.71827 0.359494 -5.70686e-21)
(-1.87087 0.365594 0)
(-2.02069 0.368656 0)
(-2.16672 0.368766 6.52154e-21)
(-2.3081 0.366091 0)
(-2.4441 0.360858 0)
(-2.57417 0.353332 -7.33378e-21)
(-2.69791 0.343793 0)
(-2.81502 0.332526 8.04252e-21)
(-2.92531 0.319801 -1.64445e-20)
(-3.02868 0.305867 0)
(-3.12509 0.290943 0)
(-3.21455 0.275218 -3.665e-20)
(-3.29711 0.258848 -3.77333e-20)
(-3.37282 0.241958 -3.87569e-20)
(-3.44176 0.224643 2.00087e-20)
(-3.504 0.206975 -2.01347e-20)
(-3.55962 0.189004 -6.18971e-20)
(-3.6087 0.170762 4.20692e-20)
(-3.65131 0.152268 2.11413e-20)
(-3.68754 0.133534 0)
(-3.71749 0.114567 -2.15326e-20)
(-3.74127 0.0953761 2.21167e-20)
(-3.75904 0.075973 0)
(-3.77096 0.0564032 0)
(-3.77726 0.0368079 0)
(-3.77822 0.0174705 -2.13924e-20)
(-3.77406 -0.00127052 0)
(-3.76424 -0.0192416 4.22359e-20)
(-3.74661 -0.0365322 0)
(-3.72103 -0.0533979 4.04992e-20)
(-3.68719 -0.0699295 0)
(-3.64497 -0.086138 -3.82425e-20)
(-3.59433 -0.101983 0)
(-3.53532 -0.117394 3.5496e-20)
(-3.46803 -0.132283 -1.75759e-20)
(-3.39262 -0.146551 0)
(-3.30932 -0.160094 -3.05846e-20)
(-3.2184 -0.172803 -1.36842e-20)
(-3.12024 -0.184566 -1.27141e-20)
(-3.01524 -0.195275 0)
(-2.90391 -0.204823 -1.22849e-20)
(-2.7868 -0.213106 -9.68202e-21)
(-2.66455 -0.220028 0)
(-2.53785 -0.225501 7.63213e-21)
(-2.40746 -0.229449 -1.49535e-20)
(-2.2742 -0.231809 0)
(-2.13893 -0.232531 -4.66215e-21)
(-2.00256 -0.231587 0)
(-1.86603 -0.228967 1.01855e-20)
(-1.73029 -0.224683 0)
(-1.59632 -0.218775 -5.14177e-21)
(-1.46508 -0.211307 -4.26623e-22)
(-1.33752 -0.202369 1.21896e-21)
(-1.21452 -0.19208 1.01139e-21)
(-1.09695 -0.180586 3.13902e-22)
(-0.98559 -0.168056 0)
(-0.881125 -0.154682 0)
(-0.784155 -0.140675 0)
(-0.695165 -0.126257 -1.73467e-20)
(-0.614519 -0.11166 -6.97189e-21)
(-0.542456 -0.0971183 7.43667e-21)
(-0.479087 -0.0828606 0)
(-0.424397 -0.0691063 7.04776e-21)
(-0.378249 -0.0560552 -8.24013e-21)
(-0.340394 -0.043881 -8.32697e-21)
(-0.310475 -0.0327235 0)
(-0.288046 -0.0226821 0)
(-0.272603 -0.0138123 0)
(-0.2636 -0.00612102 -7.87556e-21)
(-0.260378 0.000466978 0)
(-0.262401 0.00617737 1.45189e-20)
(-0.268907 0.011076 2.05445e-20)
(-0.279164 0.0151985 -1.28786e-20)
(-0.292566 0.0186105 0)
(-0.30857 0.021383 -5.59978e-21)
(-0.326684 0.0235848 0)
(-0.346471 0.0252792 -8.8035e-21)
(-0.367539 0.026523 4.01878e-21)
(-0.389542 0.0273668 3.47979e-21)
(-0.412172 0.0278563 0)
(-0.43516 0.0280333 6.63407e-21)
(-0.458267 0.0279361 -3.50988e-21)
(-0.481286 0.0276001 -1.11566e-21)
(-0.504035 0.027058 0)
(-0.526358 0.0263398 -2.05535e-22)
(-0.548121 0.025473 3.8568e-22)
(-0.569211 0.0244823 0)
(-0.589529 0.0233899 1.7355e-21)
(-0.608997 0.0222153 2.44383e-21)
(-0.627548 0.0209758 3.10213e-21)
(-0.645128 0.0196861 0)
(-0.661693 0.0183589 0)
(-0.677208 0.0170047 0)
(-0.691648 0.0156325 -2.54995e-21)
(-0.70499 0.0142491 -2.89385e-21)
(-0.717221 0.0128602 0)
(-0.728329 0.01147 -6.36244e-21)
(-0.738309 0.0100816 -6.65228e-21)
(-0.747158 0.00869689 0)
(-0.754878 0.00731685 -7.17698e-21)
(-0.761474 0.00594239 -1.46022e-20)
(-0.766961 0.00457587 7.48241e-21)
(-0.771362 0.00322486 7.55326e-21)
(-0.774711 0.00190382 0)
(-0.777034 0.000618492 0)
(-0.778229 -0.000622743 0)
(-0.778294 -0.00183602 7.75725e-21)
(-0.777225 -0.00302753 -7.82222e-21)
(-0.77502 -0.00419881 -1.55165e-20)
(-0.771675 -0.00534956 7.65323e-21)
(-0.767189 -0.00647813 -7.73341e-21)
(-0.761559 -0.0075806 -7.49821e-21)
(-0.75478 -0.00864747 0)
(-0.746837 -0.00966359 0)
(-0.737686 -0.0106262 7.38806e-21)
(-0.727261 -0.0115552 0)
(-0.715461 -0.0124324 0)
(-0.702219 -0.0129645 -1.37268e-20)
(-0.688397 -0.0129715 0)
(-0.673215 -0.0136346 -6.51971e-21)
(-0.656637 -0.0152792 5.72716e-21)
(-0.638677 -0.0169973 0)
(-0.619875 -0.0185853 -5.55125e-21)
(-0.599877 -0.0198108 0)
(-0.578444 -0.0192526 0)
(-0.555901 -0.019623 4.97306e-21)
(-0.531967 -0.0201476 -9.87428e-21)
(-0.506455 -0.0212041 4.09446e-21)
(-0.480032 -0.0224555 0)
(-0.452191 -0.0232313 0)
(-0.423119 -0.0240942 -3.69744e-21)
(-0.392889 -0.0246954 0)
(-0.361316 -0.0252544 -3.08197e-21)
(-0.32817 -0.0259185 0)
(-0.294627 -0.0268487 0)
(-0.260082 -0.0280629 0)
(-0.222984 -0.0278187 -1.29153e-21)
(-0.186864 -0.0288902 0)
(-0.147893 -0.0286747 6.35768e-22)
(-0.108681 -0.028724 0)
(-0.0699882 -0.029337 0)
(-0.0291557 -0.0284327 -2.08671e-23)
(0.0107869 -0.0277084 -5.16264e-22)
(0.0499192 -0.0267422 0)
(0.0879291 -0.0254435 0)
(0.124656 -0.0233751 0)
(0.158438 -0.0205804 6.50528e-21)
(0.188225 -0.0161401 0)
(0.213404 -0.0094366 -5.61165e-21)
(0.0448434 -0.484486 2.57186e-22)
(0.101154 -0.494227 2.19798e-20)
(0.134728 -0.428396 0)
(0.156498 -0.355635 -1.7067e-20)
(0.167638 -0.281955 0)
(0.169224 -0.208645 0)
(0.16225 -0.136606 -2.15059e-23)
(0.147354 -0.0665784 8.27938e-21)
(0.125064 0.000780571 8.36237e-21)
(0.0958379 0.0648301 8.61466e-21)
(0.0601944 0.124318 0)
(0.0182833 0.176881 0)
(-0.0304176 0.220127 -8.39265e-21)
(-0.0870287 0.253329 -1.61651e-20)
(-0.152814 0.278145 1.55049e-20)
(-0.228834 0.297921 0)
(-0.315582 0.3163 1.43397e-20)
(-0.41286 0.336043 -7.13075e-21)
(-0.519901 0.358502 0)
(-0.635533 0.383748 1.34027e-20)
(-0.75843 0.411053 6.831e-21)
(-0.887267 0.439332 -1.33425e-20)
(-1.02073 0.467474 -6.84892e-21)
(-1.15745 0.494494 0)
(-1.296 0.519484 1.40432e-20)
(-1.43496 0.541614 1.44738e-20)
(-1.57304 0.560208 0)
(-1.70905 0.574772 1.56014e-20)
(-1.84202 0.585004 0)
(-1.97114 0.590786 1.70394e-20)
(-2.09585 0.592164 8.63711e-21)
(-2.21573 0.589323 0)
(-2.3306 0.582557 0)
(-2.44038 0.572237 0)
(-2.54514 0.558779 0)
(-2.64501 0.542618 0)
(-2.74019 0.524183 0)
(-2.83089 0.503881 2.44941e-20)
(-2.91732 0.482077 -3.78737e-20)
(-2.99969 0.459092 0)
(-3.07814 0.435199 0)
(-3.15279 0.410617 0)
(-3.22373 0.385519 -5.18069e-22)
(-3.29096 0.360035 2.93886e-20)
(-3.35449 0.334258 6.07822e-20)
(-3.41423 0.308252 -6.21712e-20)
(-3.47009 0.282057 -3.19309e-20)
(-3.52192 0.2557 3.20482e-20)
(-3.56956 0.229196 4.31938e-22)
(-3.61281 0.202563 3.33494e-20)
(-3.65145 0.175818 0)
(-3.68525 0.148991 3.38856e-20)
(-3.71395 0.122119 4.85877e-22)
(-3.73729 0.095249 0)
(-3.75496 0.0684298 0)
(-3.76659 0.0416903 -3.38696e-20)
(-3.77173 0.0150038 0)
(-3.76992 -0.0117269 0)
(-3.7607 -0.0385869 3.33327e-20)
(-3.74371 -0.0655223 6.38921e-20)
(-3.71879 -0.0923292 -3.03736e-20)
(-3.68576 -0.118857 0)
(-3.64451 -0.14497 2.84712e-20)
(-3.595 -0.170529 0)
(-3.53723 -0.195386 2.81582e-20)
(-3.47128 -0.219381 2.49742e-20)
(-3.39729 -0.242346 -4.94164e-20)
(-3.31545 -0.264107 -2.44489e-20)
(-3.22602 -0.284489 0)
(-3.12934 -0.303314 4.11237e-20)
(-3.02581 -0.320408 0)
(-2.91589 -0.335603 5.16993e-20)
(-2.80012 -0.34874 3.22597e-20)
(-2.6791 -0.35967 2.92722e-20)
(-2.5535 -0.36826 -2.63021e-20)
(-2.42405 -0.374396 3.38672e-20)
(-2.29154 -0.377986 0)
(-2.1568 -0.378962 0)
(-2.02072 -0.377286 -1.49732e-20)
(-1.8842 -0.372954 -1.74287e-20)
(-1.74819 -0.365995 0)
(-1.61363 -0.356478 2.70635e-21)
(-1.48147 -0.344511 0)
(-1.35264 -0.330243 -3.8472e-21)
(-1.22803 -0.313864 1.81383e-21)
(-1.10849 -0.295602 -1.70302e-21)
(-0.994803 -0.275721 -2.12247e-21)
(-0.887686 -0.254517 0)
(-0.787751 -0.23231 4.9023e-21)
(-0.69551 -0.209437 1.20872e-21)
(-0.611364 -0.186245 0)
(-0.535596 -0.163081 0)
(-0.468371 -0.14028 0)
(-0.409733 -0.11816 -1.00234e-20)
(-0.359616 -0.0970117 0)
(-0.317849 -0.0770879 0)
(-0.284161 -0.0585985 0)
(-0.258199 -0.0417026 0)
(-0.239535 -0.0265004 0)
(-0.227674 -0.0130209 -1.05264e-20)
(-0.222026 -0.00121198 0)
(-0.221968 0.00896904 -9.97973e-21)
(-0.226823 0.0176349 -9.50467e-21)
(-0.235904 0.0248914 8.95315e-21)
(-0.248562 0.0308612 0)
(-0.264186 0.0356736 7.66813e-21)
(-0.282218 0.0394556 0)
(-0.302153 0.0423269 6.22604e-21)
(-0.32354 0.044397 -5.47643e-21)
(-0.345986 0.0457646 -1.46204e-20)
(-0.369144 0.0465188 0)
(-0.392715 0.0467393 -1.0143e-20)
(-0.416438 0.0464985 -2.94938e-21)
(-0.44009 0.0458614 0)
(-0.463481 0.0448868 -2.68241e-21)
(-0.486447 0.0436279 -1.3769e-21)
(-0.508851 0.0421322 1.15163e-23)
(-0.530577 0.0404421 0)
(-0.551528 0.0385953 -1.24483e-21)
(-0.571627 0.0366245 -1.75314e-21)
(-0.590808 0.0345582 -6.38024e-21)
(-0.60902 0.032421 0)
(-0.626223 0.0302337 0)
(-0.642387 0.0280137 0)
(-0.657489 0.0257755 -3.54957e-21)
(-0.671514 0.0235308 0)
(-0.684452 0.0212893 0)
(-0.696297 0.0190585 4.56247e-21)
(-0.707051 0.0168445 4.77014e-21)
(-0.716715 0.0146521 0)
(-0.725295 0.0124852 0)
(-0.732801 0.0103478 1.04724e-20)
(-0.739245 0.00824445 0)
(-0.744634 0.00617946 -1.08654e-20)
(-0.748976 0.00415446 -1.09916e-20)
(-0.752265 0.00217206 0)
(-0.754486 0.000226868 0)
(-0.755637 -0.00168271 1.12371e-20)
(-0.755719 -0.00355892 -6.19748e-23)
(-0.754731 -0.00540317 -7.97326e-23)
(-0.752671 -0.00721593 0)
(-0.749537 -0.00899663 2.21932e-20)
(-0.745322 -0.0107432 0)
(-0.740016 -0.0124513 0)
(-0.733599 -0.0141174 0)
(-0.726026 -0.015755 -1.05238e-20)
(-0.717237 -0.0174167 0)
(-0.707208 -0.0191814 2.0746e-20)
(-0.69602 -0.0211258 9.98026e-21)
(-0.684349 -0.0231754 0)
(-0.671809 -0.0242669 9.45541e-21)
(-0.657279 -0.0252074 0)
(-0.641264 -0.0267807 0)
(-0.624153 -0.0281443 2.58299e-20)
(-0.605574 -0.0298104 -1.71071e-20)
(-0.586221 -0.0315802 0)
(-0.565941 -0.032846 -1.59089e-20)
(-0.544083 -0.03393 7.26198e-21)
(-0.52085 -0.0353671 0)
(-0.496273 -0.0367098 0)
(-0.4702 -0.0380058 0)
(-0.442888 -0.0394079 1.68533e-20)
(-0.414311 -0.0405415 0)
(-0.384402 -0.0418081 4.42042e-21)
(-0.353061 -0.0428648 0)
(-0.320611 -0.0437324 0)
(-0.287035 -0.0451101 0)
(-0.251869 -0.0457779 0)
(-0.216275 -0.0466211 0)
(-0.17923 -0.0472451 0)
(-0.141136 -0.0473618 2.56415e-21)
(-0.10287 -0.0475029 0)
(-0.0637418 -0.0470454 1.64752e-23)
(-0.0242014 -0.0459316 5.40199e-22)
(0.0147488 -0.0444739 0)
(0.0528585 -0.0424644 0)
(0.0897917 -0.0394506 -2.33725e-21)
(0.124818 -0.0351597 -3.43119e-21)
(0.156393 -0.0290863 3.6157e-21)
(0.185904 -0.0208321 4.69392e-21)
(0.0047945 -0.577741 -4.05673e-20)
(0.0276456 -0.531555 -3.00122e-20)
(0.0244877 -0.445506 -1.67166e-20)
(0.0159589 -0.356252 -7.33035e-21)
(0.00170551 -0.267125 0)
(-0.0185721 -0.179165 1.3866e-20)
(-0.0448038 -0.0931304 -6.56294e-21)
(-0.0768386 -0.00974446 0)
(-0.114579 0.070246 -6.9915e-21)
(-0.157938 0.145976 0)
(-0.206807 0.216351 1.29599e-20)
(-0.261271 0.280057 0)
(-0.321876 0.336119 6.39457e-21)
(-0.389612 0.384621 1.23323e-20)
(-0.465565 0.426935 -1.18745e-20)
(-0.550445 0.465203 0)
(-0.64428 0.501529 -1.11046e-20)
(-0.746376 0.537332 0)
(-0.85549 0.573113 0)
(-0.970061 0.608579 -1.05337e-20)
(-1.08844 0.64294 0)
(-1.20901 0.675213 -2.30561e-22)
(-1.3303 0.704443 0)
(-1.45099 0.729828 0)
(-1.56995 0.750749 4.96386e-22)
(-1.68625 0.76678 -1.16585e-20)
(-1.79922 0.777695 -1.27687e-20)
(-1.90842 0.783458 -1.26585e-20)
(-2.01364 0.784205 0)
(-2.11486 0.780211 -2.85927e-20)
(-2.21219 0.771856 0)
(-2.30586 0.759587 -1.6154e-20)
(-2.39618 0.743883 0)
(-2.48345 0.72523 0)
(-2.56799 0.704095 1.8509e-20)
(-2.65008 0.680909 0)
(-2.72997 0.656053 -2.01156e-20)
(-2.80782 0.629856 7.07519e-22)
(-2.88374 0.602588 4.27262e-20)
(-2.95779 0.574466 -4.49574e-20)
(-3.02995 0.545653 0)
(-3.10014 0.516266 0)
(-3.16822 0.486382 -2.52677e-20)
(-3.23402 0.456045 0)
(-3.29731 0.425273 -2.53943e-20)
(-3.35784 0.394064 2.59873e-20)
(-3.41531 0.362406 2.65286e-20)
(-3.46941 0.330278 0)
(-3.51981 0.297659 -2.7439e-20)
(-3.56614 0.26453 -2.77999e-20)
(-3.60805 0.230882 5.7408e-20)
(-3.64515 0.196712 -2.83141e-20)
(-3.67705 0.162034 -2.84605e-20)
(-3.70336 0.126872 0)
(-3.72367 0.0912675 0)
(-3.73757 0.0552737 2.84215e-20)