/*--------------------------------*- C++ -*----------------------------------*\
  =========                 |
  \\      /  F ield         | OpenFOAM: The Open Source CFD Toolbox
   \\    /   O peration     | Website:  https://openfoam.org
    \\  /    A nd           | Version:  9
     \\/     M anipulation  |
\*---------------------------------------------------------------------------*/
FoamFile
{
    format      ascii;
    class       volScalarField;
    location    "0.23";
    object      epsilon;
}
// * * * * * * * * * * * * * * * * * * * * * * * * * * * * * * * * * * * * * //

dimensions      [0 2 -3 0 0 0 0];

internalField   nonuniform List<scalar> 
12225
(
209.471
126.062
81.4907
57.9672
45.1207
37.5716
32.7252
29.3995
27.0637
25.4366
24.3065
23.4832
22.8121
22.2034
21.6931
21.7363
29.6933
103.195
61.3911
54.726
42.0175
33.1929
27.4782
23.6265
20.8867
18.8304
17.2415
16.0192
15.0987
14.4119
13.8798
13.4197
12.9744
12.938
18.905
82.949
31.4622
33.1206
28.7335
24.2961
20.8268
18.2404
16.3069
14.8312
13.6885
12.8119
12.1616
11.701
11.3865
11.1706
11.0706
11.7799
19.4104
78.7769
21.8487
23.8246
22.1421
19.6772
17.4001
15.5284
14.0495
12.8929
11.9934
11.3082
10.8103
10.4785
10.29
10.2311
10.404
11.7438
20.6592
75.4816
17.8279
19.0763
18.2995
16.801
15.2314
13.8328
12.6685
11.731
10.9939
10.4338
10.035
9.78685
9.68232
9.73746
10.126
11.9182
21.294
70.559
15.8886
16.4096
15.8882
14.8647
13.7201
12.6426
11.7077
10.9342
10.3175
9.84885
9.52175
9.33417
9.2917
9.43544
9.98958
12.0613
21.2452
64.0568
14.8829
14.8335
14.3196
13.5161
12.6211
11.7581
10.9897
10.3406
9.81679
9.41846
9.14632
9.00522
9.01107
9.22427
9.8976
12.1001
20.656
56.6519
14.3434
13.8797
13.2838
12.5658
11.8097
11.085
10.4339
9.87746
9.42493
9.08121
8.85187
8.74709
8.79078
9.05662
9.80659
12.0217
19.7021
49.0789
14.0503
13.2993
12.5998
11.8976
11.2112
10.5706
9.99845
9.50857
9.10915
8.80695
8.61042
8.53352
8.60587
8.90858
9.69758
11.838
18.54
41.91
13.8911
12.9487
12.1529
11.4334
10.7749
10.1809
9.65864
9.21392
8.85222
8.58025
8.40781
8.35123
8.44364
8.76841
9.56457
11.5706
17.2918
35.4946
13.8051
12.7402
11.8665
11.1176
10.4632
9.89124
9.39747
8.98108
8.64431
8.39285
8.23682
8.19367
8.29802
8.63131
9.4088
11.2437
16.0448
29.9922
13.7628
12.6288
11.7026
10.9261
10.2647
9.69905
9.21791
8.81591
8.49264
8.25255
8.10543
8.0689
8.1773
8.50737
9.24934
10.9098
14.9537
25.799
13.7387
12.5611
11.5968
10.796
10.1239
9.55729
9.08079
8.68576
8.36963
8.13564
7.99291
7.95861
8.06561
8.38399
9.07705
10.5513
13.8942
22.1362
13.7243
12.5184
11.5261
10.7043
10.02
9.44829
8.97134
8.57819
8.26458
8.03253
7.89027
7.85385
7.95342
8.25008
8.87721
10.1441
12.8118
18.8252
13.7168
12.4948
11.4849
10.6481
9.95307
9.37469
8.89406
8.4989
8.18376
7.94968
7.80376
7.76037
7.84572
8.11007
8.65602
9.70426
11.7526
15.9585
13.7133
12.4837
11.465
10.6198
9.9178
9.33402
8.84911
8.45018
8.13109
7.89203
7.73891
7.68388
7.74832
7.97079
8.42453
9.25521
10.7632
13.5806
13.7119
12.4796
11.4578
10.6098
9.90537
9.31936
8.83205
8.43012
8.10689
7.86172
7.69914
7.62876
7.66678
7.84035
8.19716
8.82442
9.88623
11.6941
13.7111
12.4781
11.4563
10.6092
9.90632
9.32197
8.83583
8.43387
8.10854
7.85809
7.68542
7.59741
7.60525
7.72626
7.98805
8.43664
9.15041
10.2633
13.7103
12.4771
11.4566
10.6125
9.91414
9.3353
8.85469
8.45704
8.13334
7.88012
7.69824
7.59179
7.56764
7.63562
7.80973
8.11048
8.56861
9.23028
13.7103
12.4786
11.4613
10.6221
9.93011
9.35847
8.88514
8.49374
8.17381
7.92022
7.73193
7.61086
7.5611
7.58851
7.70082
7.90795
8.2225
8.65983
13.7135
12.4898
11.4824
10.6529
9.96911
9.404
8.93561
8.54744
8.22855
7.9728
7.77774
7.64361
7.5725
7.56781
7.63396
7.77604
7.99919
8.30721
13.727
12.5305
11.5505
10.7414
10.069
9.50772
9.03787
8.64505
8.31939
8.05476
7.84786
7.69756
7.60427
7.56955
7.59566
7.6851
7.83965
8.05853
13.77
12.648
11.7293
10.9549
10.2923
9.72336
9.23631
8.82244
8.47504
8.18899
7.96047
7.78703
7.66744
7.60153
7.58986
7.63325
7.73172
7.88272
13.8916
12.943
12.1362
11.4021
10.7284
10.121
9.58502
9.12179
8.72942
8.40377
8.14004
7.93383
7.78184
7.68192
7.63295
7.63426
7.68475
7.78106
14.2121
13.614
12.9645
12.2409
11.4958
10.7857
10.1465
9.59206
9.12405
8.73709
8.42318
8.1744
7.98427
7.84809
7.76271
7.72592
7.73555
7.78766
15.0205
15.0499
14.5405
13.7031
12.7549
11.8298
11.0052
10.3047
9.72591
9.25585
8.87878
8.5804
8.34944
8.17769
8.05949
7.99083
7.96829
7.98723
17.0522
18.0714
17.4639
16.1827
14.7644
13.4464
12.3193
11.4063
10.6811
10.1101
9.66235
9.31308
9.04418
8.84291
8.70055
8.61095
8.56926
8.56975
22.546
24.7087
23.0368
20.5046
18.1005
16.0886
14.4977
13.2937
12.3885
11.7057
11.1878
10.7948
10.4996
10.2839
10.1354
10.0458
10.0083
10.0156
40.7649
41.2019
34.9657
29.1315
24.6523
21.3677
19.0226
17.3951
16.2622
15.4561
14.8737
14.4528
14.1554
13.9576
13.8435
13.8016
13.8233
13.8989
135.829
96.9281
71.5923
55.2002
44.7152
38.0818
33.9102
31.333
29.6554
28.493
27.6551
27.0501
26.6349
26.3873
26.2929
26.3383
26.5095
26.7876
67.6724
94.6772
105.034
110.178
111.117
108.775
103.791
96.8333
90.0063
83.9796
78.6713
74.4965
72.1216
72.0894
74.315
77.6632
80.5653
82.3092
83.7419
87.7084
94.7489
103.409
113.111
123.512
134.393
145.597
157.003
168.52
180.073
191.607
203.077
214.447
225.688
236.777
247.693
258.416
268.927
279.207
289.236
298.993
308.455
317.601
326.406
334.846
342.898
350.539
357.751
364.517
370.828
376.684
382.097
387.095
391.728
396.077
399.582
402.18
403.831
404.485
404.09
402.597
399.964
396.157
391.154
384.945
377.538
368.959
359.251
348.479
336.728
324.103
310.725
296.736
282.287
267.542
252.667
237.833
223.203
208.934
195.167
182.029
169.626
158.04
147.334
137.546
128.694
120.777
113.777
107.663
102.393
97.9189
94.1873
91.1419
88.7262
86.8848
85.5639
84.713
84.285
84.2374
84.535
85.172
86.0232
87.0287
88.1546
89.368
90.6376
91.9344
93.2317
94.5057
95.735
96.9009
97.9869
98.979
99.8654
100.636
101.283
101.8
102.182
102.428
102.537
102.512
102.357
102.081
101.695
101.195
100.574
99.8334
98.9815
98.0263
96.9774
95.845
94.6399
93.373
92.0552
90.697
89.3086
87.8994
86.4782
85.0528
83.63
82.2159
80.8153
79.4323
78.07
76.7307
75.4161
74.127
72.8637
71.6261
70.4134
69.2242
68.0571
66.9103
65.7878
64.7443
64.3156
70.0986
69.7977
65.2485
15.2084
69.1199
15.3199
69.2618
15.4331
68.0468
15.9327
70.9117
16.1579
16.0183
16.4004
75.0135
16.6673
16.737
16.3825
73.5918
16.8092
75.0942
16.866
17.4408
17.6468
17.9512
106.068
88.6621
80.8241
75.3053
70.9654
67.6122
65.1967
63.8411
64.1384
65.899
69.0463
73.9085
80.8618
89.8618
100.234
110.406
118.159
123.909
128.313
132.024
135.239
137.912
140.036
141.663
142.884
143.793
144.482
145.022
145.471
145.868
146.24
146.604
146.968
147.334
147.7
148.062
148.413
148.747
149.056
149.335
149.578
149.78
149.938
150.052
150.121
150.148
150.138
150.099
150.044
149.988
149.954
149.974
150.083
150.345
150.597
150.673
150.534
150.153
149.506
148.567
147.315
145.73
143.794
141.494
138.825
135.783
132.377
128.617
124.527
120.134
115.476
110.596
105.545
100.377
95.1517
89.9285
84.7676
79.727
74.8609
70.2179
65.8402
61.762
58.0093
54.5998
51.5425
48.8393
46.4847
44.4677
42.7725
41.3795
40.267
39.4116
38.7894
38.3765
38.15
38.0878
38.1694
38.3764
38.692
39.1024
39.5788
40.0886
40.6156
41.1473
41.6728
42.1828
42.6691
43.1246
43.5437
43.9213
44.2536
44.5375
44.7707
44.9515
45.0788
45.152
45.1714
45.1375
45.0516
44.9156
44.7321
44.504
44.2351
43.9293
43.583
43.1949
42.7703
42.3134
41.8284
41.3198
40.7919
40.2493
39.6963
39.137
38.5754
38.0151
37.4593
36.9109
36.3723
35.8456
35.3326
34.8343
34.3518
33.8856
33.436
33.003
32.5861
32.1849
31.7985
31.4259
31.0656
30.7151
30.3672
29.9964
29.5212
29.0771
29.014
29.1352
26.5708
28.7689
26.304
28.5148
25.8697
28.1266
25.2228
27.2768
23.2296
24.4446
22.6719
25.8909
23.4844
23.2718
23.2581
24.5171
20.6381
22.9349
19.2844
17.2836
15.9343
14.9424
131.381
100.404
89.0861
82.173
77.2154
73.8386
72.154
72.5534
74.9554
79.7303
87.0385
96.4713
107.149
117.639
126.436
132.488
135.564
136.336
135.681
134.302
132.594
130.746
128.869
127.039
125.312
123.723
122.287
121.008
119.877
118.879
117.996
117.211
116.508
115.872
115.293
114.763
114.276
113.83
113.424
113.06
112.74
112.468
112.247
112.082
111.977
111.937
111.964
112.063
112.235
112.48
112.8
113.19
113.645
114.15
114.621
115.013
115.299
115.45
115.44
115.239
114.822
114.162
113.236
112.022
110.503
108.67
106.515
104.04
101.254
98.173
94.8204
91.2274
87.4319
83.4776
79.4128
75.2887
71.1583
67.0741
63.0866
59.2428
55.5847
52.1479
48.9613
46.0462
43.4165
41.0787
39.0327
37.2726
35.7871
34.5611
33.5764
32.8127
32.2484
31.8617
31.6309
31.5351
31.5547
31.6713
31.8681
32.1298
32.4327
32.7587
33.0959
33.4345
33.7667
34.0858
34.386
34.6628
34.9125
35.1319
35.3188
35.4713
35.5882
35.6685
35.7117
35.7177
35.6866
35.6187
35.5149
35.3763
35.204
34.9998
34.7652
34.5021
34.2122
33.8972
33.5577
33.1968
32.8177
32.4232
32.0165
31.6005
31.1782
30.7525
30.3263
29.9019
29.4818
29.0681
28.6627
28.2673
27.8833
27.5119
27.1539
26.8102
26.4813
26.1673
25.8685
25.5846
25.3153
25.0601
24.818
24.5872
24.3635
24.1337
23.8645
23.5423
23.416
23.4035
23.0281
23.0707
22.7595
22.8034
22.4557
22.5246
22.0623
22.0391
21.4796
21.4649
20.9818
20.9741
20.5723
20.3016
20.0644
19.6767
18.8913
18.4567
17.6476
16.6553
15.6744
14.7203
153.759
117.552
105.79
98.2756
92.7195
89.1384
87.8527
88.5906
91.3452
96.2339
103.003
110.893
118.726
125.233
129.502
131.271
130.907
129.129
126.646
123.963
121.36
118.968
116.832
114.958
113.331
111.923
110.702
109.635
108.69
107.842
107.068
106.354
105.69
105.069
104.49
103.955
103.468
103.034
102.661
102.355
102.123
101.972
101.909
101.94
102.068
102.298
102.63
103.065
103.601
104.234
104.958
105.762
106.634
107.542
108.439
109.291
110.068
110.739
111.273
111.638
111.8
111.728
111.39
110.76
109.813
108.53
106.898
104.912
102.571
99.8875
96.8783
93.5706
89.9993
86.2064
82.2401
78.1536
74.0026
69.8442
65.7348
61.7278
57.8726
54.2123
50.7832
47.6138
44.7244
42.1274
39.8272
37.8216
36.1021
34.6553
33.4638
32.5073
31.7636
31.2098
30.8226
30.5793
30.4584
30.4397
30.5042
30.6346
30.8099
31.0146
31.2368
31.467
31.6975
31.9217
32.1342
32.3307
32.5076
32.6621
32.7918
32.8951
32.9707
33.0174
33.0346
33.022
32.9792
32.9064
32.8039
32.6722
32.5119
32.324
32.1095
31.8699
31.6066
31.3213
31.0159
30.6917
30.351
29.9961
29.6291
29.2525
28.8687
28.4799
28.0885
27.6966
27.3063
26.9195
26.5381
26.1636
25.7978
25.4418
25.097
24.7645
24.4451
24.1396
23.8485
23.5724
23.3114
23.0656
22.8345
22.6173
22.4118
22.2125
22.009
21.8008
21.6544
21.5467
21.3865
21.2789
21.1457
21.046
20.9119
20.8182
20.6452
20.5209
20.3278
20.1836
19.9377
19.7322
19.4793
19.2219
18.9445
18.5778
18.1293
17.6429
17.1006
16.4414
15.7255
14.9676
172.186
139.791
128.624
120.017
113.111
108.252
105.215
103.986
104.721
107.235
111.012
115.252
119.05
121.662
122.732
122.338
120.866
118.805
116.567
114.421
112.501
110.849
109.457
108.294
107.32
106.494
105.778
105.139
104.553
104.001
103.473
102.964
102.472
102.004
101.566
101.167
100.818
100.529
100.314
100.181
100.141
100.204
100.377
100.667
101.079
101.616
102.278
103.064
103.972
104.994
106.121
107.341
108.638
109.98
111.327
112.647
113.906
115.071
116.106
116.973
117.635
118.052
118.189
118.01
117.484
116.586
115.294
113.596
111.487
108.971
106.061
102.781
99.165
95.2541
91.0986
86.7551
82.2851
77.7527
73.2226
68.7579
64.4179
60.2562
56.3189
52.6438
49.2593
46.1848
43.4304
40.9978
38.8812
37.0686
35.5428
34.2831
33.2658
32.466
31.8582
31.4171
31.1186
30.9399
30.8598
30.8582
30.9143
31.0121
31.1386
31.2835
31.4379
31.5948
31.7482
31.8931
32.0257
32.1427
32.2414
32.3198
32.3761
32.4091
32.4175
32.4008
32.3581
32.2893
32.1941
32.0726
31.925
31.7519
31.5538
31.3316
31.0865
30.8196
30.5325
30.2269
29.9043
29.5663
29.2147
28.8513
28.4781
28.0971
27.7103
27.3195
26.9268
26.5341
26.1431
25.7556
25.3733
24.9979
24.6307
24.2734
23.9271
23.5932
23.2727
22.9666
22.6757
22.4005
22.1413
21.8981
21.6701
21.4551
21.2498
21.0553
20.8877
20.7408
20.5961
20.4677
20.3461
20.2333
20.1221
20.0151
19.8931
19.7744
19.6389
19.4958
19.317
19.1288
18.9198
18.6916
18.4323
18.1256
17.7731
17.3696
16.9245
16.4142
15.8583
15.2633
178.787
164.701
153.984
143.24
134.082
126.343
120.252
116.09
113.832
113.188
113.646
114.57
115.358
115.6
115.156
114.12
112.723
111.211
109.773
108.518
107.484
106.665
106.029
105.537
105.148
104.826
104.54
104.269
103.997
103.716
103.424
103.126
102.828
102.543
102.281
102.058
101.889
101.787
101.768
101.844
102.027
102.329
102.759
103.323
104.027
104.874
105.866
106.999
108.27
109.671
111.192
112.817
114.53
116.301
118.092
119.869
121.597
123.239
124.756
126.105
127.243
128.126
128.71
128.955
128.822
128.276
127.289
125.841
123.919
121.52
118.654
115.338
111.604
107.492
103.054
98.3507
93.4483
88.4194
83.3383
78.2793
73.3138
68.5076
63.9193
59.5981
55.5828
51.9014
48.5709
45.5982
42.981
40.7089
38.7653
37.1283
35.7728
34.6717
33.7966
33.1194
32.6129
32.2512
32.0105
31.8676
31.8003
31.7907
31.8244
31.8893
31.9751
32.0737
32.1779
32.282
32.3812
32.4717
32.5501
32.6138
32.6605
32.6885
32.6962
32.6823
32.6458
32.5859
32.502
32.3936
32.2607
32.1032
31.9213
31.7155
31.4863
31.2347
30.9617
30.6684
30.3563
30.0271
29.6818
29.3219
28.949
28.5648
28.1709
27.7693
27.3617
26.95
26.536
26.1216
25.7086
25.2988
24.894
24.4959
24.1063
23.7268
23.3589
23.0042
22.6639
22.3392
22.031
21.7399
21.4662
21.2093
20.9684
20.744
20.54
20.3548
20.184
20.0285
19.8857
19.7533
19.6286
19.508
19.3865
19.2646
19.1358
18.9974
18.8417
18.6732
18.4887
18.2858
18.0568
17.7947
17.4998
17.1664
16.7972
16.3858
15.9433
15.4739
177.533
191.846
178.207
164.044
151.409
140.593
131.703
124.779
119.742
116.349
114.2
112.828
111.814
110.873
109.886
108.861
107.873
107.004
106.308
105.805
105.483
105.312
105.252
105.266
105.318
105.379
105.427
105.449
105.438
105.391
105.315
105.218
105.112
105.012
104.935
104.897
104.917
105.01
105.192
105.48
105.887
106.423
107.101
107.927
108.909
110.048
111.347
112.803
114.411
116.163
118.048
120.05
122.151
124.324
126.533
128.745
130.921
133.024
135.01
136.833
138.445
139.797
140.84
141.525
141.805
141.638
140.988
139.823
138.124
135.879
133.088
129.764
125.932
121.631
116.912
111.836
106.476
100.911
95.2254
89.5064
83.8386
78.3026
72.9716
67.9088
63.1659
58.7819
54.7828
51.1823
47.9824
45.1755
42.7455
40.6701
38.9225
37.4727
36.2897
35.342
34.5988
34.0311
33.6119
33.3142
33.1136
32.9902
32.927
32.9102
32.9276
32.9695
33.0273
33.0943
33.1645
33.2331
33.2962
33.3503
33.3925
33.4205
33.432
33.4255
33.3992
33.352
33.2827
33.1906
33.0749
32.9352
32.7712
32.583
32.3708
32.1348
31.8757
31.5942
31.2912
30.9685
30.6271
30.2679
29.8922
29.5013
29.0968
28.6803
28.2535
27.8183
27.3765
26.9299
26.4805
26.0303
25.5812
25.1353
24.6946
24.261
23.8366
23.4232
23.0227
22.6367
22.2668
21.9143
21.58
21.2646
20.9683
20.6917
20.4358
20.2002
19.9838
19.7854
19.6035
19.4356
19.2794
19.1313
18.9884
18.8482
18.7066
18.5604
18.4057
18.2423
18.0677
17.8793
17.6724
17.4436
17.1899
16.9096
16.603
16.2688
15.9156
15.546
171.454
233.894
201.19
179.545
163.567
150.509
139.6
130.665
123.631
118.336
114.496
111.76
109.793
108.338
107.239
106.416
105.838
105.489
105.35
105.392
105.578
105.866
106.217
106.595
106.969
107.317
107.622
107.877
108.079
108.232
108.343
108.426
108.495
108.567
108.66
108.794
108.986
109.256
109.621
110.096
110.698
111.439
112.331
113.382
114.599
115.986
117.546
119.275
121.17
123.223
125.421
127.75
130.189
132.717
135.301
137.908
140.501
143.039
145.477
147.767
149.856
151.692
153.217
154.378
155.12
155.392
155.146
154.344
152.953
150.951
148.329
145.089
141.248
136.839
131.908
126.516
120.739
114.662
108.378
101.987
95.5871
89.2772
83.1471
77.2773
71.7353
66.5741
61.8314
57.5297
53.6775
50.2706
47.2945
44.7267
42.5385
40.6977
39.1696
37.9192
36.9122
36.1156
35.499
35.0312
34.6852
34.4384
34.2713
34.1676
34.1133
34.0966
34.1074
34.1376
34.1799
34.2285
34.2784
34.3255
34.3661
34.397
34.4156
34.4196
34.4069
34.3755
34.3241
34.2513
34.1558
34.0368
33.8936
33.7257
33.5328
33.3148
33.0718
32.8042
32.5125
32.1975
31.861
31.5035
31.1258
30.7291
30.3145
29.8837
29.4381
28.9795
28.5096
28.0305
27.544
27.0522
26.5574
26.0616
25.5672
25.0764
24.5914
24.1147
23.6485
23.1948
22.7559
22.3335
21.9292
21.5445
21.1803
20.8376
20.5172
20.2192
19.9432
19.6884
19.4535
19.2363
19.0347
18.8458
18.6667
18.4946
18.3263
18.1588
17.9892
17.816
17.6371
17.4502
17.2525
17.0418
16.816
16.5732
16.3138
16.0392
15.7562
15.466
176.426
244.719
210.496
187.505
170.463
156.403
144.451
134.42
126.277
119.932
115.186
111.759
109.361
107.738
106.695
106.097
105.849
105.881
106.134
106.554
107.091
107.7
108.339
108.976
109.584
110.144
110.644
111.079
111.45
111.762
112.026
112.256
112.467
112.677
112.907
113.175
113.502
113.907
114.408
115.022
115.767
116.655
117.7
118.911
120.297
121.862
123.611
125.541
127.649
129.928
132.368
134.952
137.661
140.478
143.377
146.326
149.288
152.225
155.089
157.83
160.395
162.725
164.761
166.44
167.701
168.484
168.734
168.398
167.432
165.803
163.486
160.472
156.766
152.39
147.381
141.796
135.707
129.202
122.383
115.359
108.245
101.157
94.2056
87.4913
81.1015
75.1071
69.5608
64.4969
59.9324
55.8686
52.2936
49.1851
46.5131
44.2425
42.3355
40.753
39.4567
38.4094
37.5769
36.9234
36.419
36.0381
35.7585
35.5613
35.4302
35.3512
35.3126
35.3044
35.3182
35.3468
35.3844
35.4256
35.466
35.5019
35.5298
35.5468
35.5502
35.5376
35.507
35.4565
35.3844
35.2894
35.1703
35.0261
34.856
34.6595
34.4363
34.1863
33.9096
33.6065
33.2779
32.9252
32.5489
32.1497
31.7285
31.2866
30.8254
30.3466
29.8518
29.3428
28.8218
28.2909
27.7521
27.208
26.6608
26.1131
25.5675
25.0265
24.4928
23.9689
23.4574
22.9607
22.4811
22.0205
21.5806
21.163
20.7687
20.3986
20.0528
19.7309
19.4319
19.1544
18.8962
18.6551
18.4283
18.213
18.0064
17.8057
17.6084
17.4126
17.2163
17.0178
16.8152
16.6074
16.3933
16.1719
15.9438
15.7101
15.4778
15.2468
830.013
316.782
224.866
192.82
173.875
159.263
146.992
136.639
128.136
121.422
116.347
112.682
110.167
108.554
107.634
107.242
107.249
107.557
108.086
108.769
109.55
110.381
111.222
112.042
112.817
113.529
114.17
114.735
115.227
115.653
116.024
116.353
116.658
116.957
117.27
117.616
118.017
118.491
119.06
119.741
120.551
121.506
122.62
123.905
125.37
127.023
128.867
130.905
133.134
135.55
138.141
140.895
143.794
146.823
149.963
153.188
156.463
159.75
163.002
166.169
169.195
172.021
174.583
176.813
178.645
180.011
180.845
181.084
180.673
179.563
177.715
175.104
171.718
167.564
162.666
157.069
150.836
144.053
136.823
129.264
121.505
113.68
105.923
98.3582
91.0973
84.2337
77.8396
71.9651
66.6388
61.8698
57.6502
53.9589
50.7649
48.0306
45.7146
43.7736
42.1649
40.8471
39.7814
38.9272
38.2517
37.7261
37.3253
37.0274
36.8136
36.6678
36.5763
36.5274
36.511
36.5188
36.5437
36.5793
36.6204
36.6624
36.7011
36.7329
36.7546
36.7631
36.756
36.7308
36.6853
36.6177
36.5262
36.4095
36.2663
36.0955
35.8965
35.6686
35.4116
35.1255
34.8102
34.4671
34.0971
33.7005
33.2778
32.8301
32.3586
31.8648
31.3501
30.8166
30.266
29.7004
29.1223
28.5338
27.9376
27.3362
26.7325
26.1292
25.5293
24.9357
24.3514
23.7792
23.2219
22.6821
22.1621
21.6642
21.19
20.7409
20.3177
19.9205
19.5491
19.2024
18.8788
18.5763
18.2925
18.0248
17.7704
17.5267
17.2913
17.062
16.8371
16.6151
16.3949
16.1758
15.9576
15.7406
15.5258
15.315
15.1125
14.9196
854.928
328.122
228.116
193.694
174.301
159.844
147.867
137.779
129.464
122.86
117.849
114.239
111.801
110.303
109.538
109.331
109.541
110.056
110.786
111.658
112.612
113.599
114.581
115.527
116.414
117.227
117.957
118.602
119.165
119.651
120.072
120.443
120.78
121.101
121.427
121.777
122.173
122.636
123.185
123.842
124.624
125.549
126.633
127.89
129.332
130.969
132.807
134.851
137.101
139.555
142.205
145.041
148.046
151.207
154.514
157.946
161.471
165.052
168.644
172.197
175.656
178.96
182.043
184.836
187.267
189.261
190.746
191.651
191.907
191.452
190.233
188.207
185.345
181.632
177.072
171.692
165.54
158.689
151.236
143.303
135.026
126.559
118.057
109.673
101.548
93.8039
86.537
79.8186
73.693
68.1806
63.2794
58.9702
55.2222
51.9955
49.245
46.9232
44.9825
43.3768
42.0624
40.9943
40.1362
39.4562
38.9258
38.5203
38.2183
38.0011
37.853
37.7604
37.7118
37.6974
37.7086
37.7383
37.7802
37.8288
37.8792
37.9272
37.9688
38.0006
38.0193
38.022
38.0061
37.9691
37.9089
37.8236
37.7113
37.5708
37.4007
37.2002
36.9683
36.7047
36.4092
36.0817
35.724
35.336
34.9183
34.4713
33.9962
33.4941
32.9665
32.415
31.8414
31.2479
30.6367
30.01
29.3705
28.7209
28.064
27.4028
26.7405
26.0802
25.4252
24.7788
24.1442
23.5246
22.9231
22.3422
21.7845
21.252
20.7462
20.268
19.8178
19.3951
18.999
18.6278
18.2796
17.9518
17.642
17.3474
17.0655
16.7942
16.5316
16.2763
16.0275
15.7849
15.5489
15.3206
15.1017
14.8944
14.7026
14.5262
857.879
325.986
225.621
191.493
172.654
158.891
147.624
138.182
130.402
124.215
119.517
116.149
113.911
112.595
112.007
111.976
112.359
113.04
113.925
114.939
116.019
117.118
118.196
119.223
120.178
121.045
121.816
122.489
123.065
123.553
123.962
124.307
124.603
124.87
125.127
125.396
125.698
126.056
126.491
127.024
127.678
128.471
129.423
130.55
131.867
133.388
135.122
137.077
139.258
141.663
144.29
147.13
150.17
153.395
156.806
160.383
164.097
167.914
171.791
175.68
179.525
183.267
186.839
190.173
193.192
195.82
197.98
199.592
200.581
200.875
200.407
199.118
196.96
193.898
189.911
185.001
179.191
172.532
165.104
157.018
148.416
139.459
130.327
121.202
112.257
103.65
95.5089
87.9323
80.9849
74.7038
69.0947
64.1413
59.8146
56.0738
52.8692
50.1489
47.8605
45.9535
44.3775
43.0841
42.0338
41.1912
40.5243
40.0053
39.6098
39.317
39.1089
38.9698
38.8867
38.8482
38.8446
38.8676
38.9099
38.9652
39.0279
39.0929
39.1557
39.2122
39.2586
39.2916
39.3078
39.3045
39.279
39.2287
39.1517
39.0459
38.9097
38.7416
38.5406
38.3056
38.0361
37.7317
37.3926
37.0203
36.6146
36.1758
35.7046
35.2021
34.6693
34.1078
33.5193
32.9057
32.2692
31.612
30.9367
30.246
29.5427
28.8299
28.1109
27.389
26.6678
25.9508
25.2417
24.5442
23.8617
23.1977
22.5552
21.9371
21.3456
20.7825
20.2488
19.745
19.2707
18.8249
18.4061
18.0122
17.6405
17.2886
16.9538
16.6337
16.3262
16.0298
15.7437
15.4678
15.2027
14.95
14.7118
14.491
14.2909
14.1117
176.71
248.897
209.777
185.723
169.453
156.944
146.659
138.074
131.023
125.428
121.193
118.181
116.222
115.136
114.745
114.89
115.432
116.258
117.273
118.401
119.578
120.757
121.898
122.97
123.953
124.831
125.596
126.244
126.778
127.205
127.535
127.781
127.96
128.092
128.195
128.294
128.411
128.571
128.796
129.113
129.544
130.113
130.843
131.753
132.863
134.188
135.744
137.541
139.586
141.883
144.43
147.222
150.248
153.493
156.96
160.633
164.486
168.484
172.588
176.752
180.923
185.042
189.046
192.863
196.421
199.641
202.442
204.744
206.466
207.529
207.86
207.389
206.053
203.798
200.58
196.373
191.167
184.98
177.863
169.901
161.223
151.993
142.404
132.666
122.991
113.576
104.59
96.1657
88.3915
81.334
75.0052
69.3907
64.4702
60.2022
56.5311
53.4003
50.7534
48.5356
46.6875
45.1602
43.9102
42.8989
42.0903
41.4531
40.9602
40.5884
40.3172
40.1292
40.0095
39.9452
39.9255
39.9408
39.983
40.0447
40.1196
40.2019
40.2867
40.369
40.4446
40.5096
40.5603
40.5932
40.6053
40.5937
40.5557
40.4889
40.3913
40.2609
40.0962
39.8958
39.6588
39.3843
39.0718
38.7222
38.3361
37.9134
37.4543
36.9597
36.4303
35.8676
35.273
34.6483
33.9955
33.3166
32.6143
31.8909
31.1495
30.3931
29.6249
28.8484
28.0673
27.2853
26.5065
25.7348
24.9743
24.2289
23.5025
22.7984
22.1199
21.4696
20.8494
20.2606
19.7038
19.1787
18.6842
18.2187
17.7799
17.3653
16.9722
16.5978
16.2398
15.8963
15.5663
15.2495
14.9466
14.6592
14.3897
14.1411
13.9167
13.7172
174.981
235.478
202.623
180.978
166.01
154.555
145.262
137.6
131.361
126.443
122.751
120.165
118.539
117.717
117.543
117.87
118.57
119.532
120.664
121.888
123.144
124.381
125.558
126.647
127.624
128.474
129.188
129.762
130.198
130.503
130.687
130.765
130.752
130.669
130.539
130.386
130.235
130.114
130.051
130.073
130.209
130.486
130.93
131.567
132.419
133.507
134.846
136.452
138.333
140.495
142.938
145.659
148.647
151.888
155.382
159.114
163.059
167.186
171.458
175.832
180.258
184.681
189.038
193.262
197.28
201.012
204.379
207.297
209.685
211.464
212.555
212.887
212.392
211.004
208.665
205.321
200.932
195.474
188.954
181.417
172.959
163.725
153.91
143.747
133.481
123.356
113.59
104.36
95.7712
87.9552
80.9164
74.6492
69.1316
64.324
60.1738
56.6222
53.6083
51.0724
48.9487
47.185
45.7332
44.5502
43.5968
42.8386
42.2454
41.7922
41.456
41.2173
41.0593
40.9679
40.9308
40.9374
40.9785
41.0461
41.1329
41.2326
41.3395
41.4483
41.5541
41.6525
41.7392
41.8105
41.8628
41.8927
41.8971
41.8732
41.8185
41.7306
41.6076
41.4477
41.2493
41.0115
40.7332
40.414
40.0552
39.6565
39.2179
38.7399
38.223
37.6683
37.077
36.4507
35.7912
35.1005
34.3807
33.6344
32.8644
32.0735
31.2651
30.4425
29.6094
28.7698
27.9278
27.0878
26.2541
25.4311
24.6233
23.8349
23.0699
22.3317
21.6233
20.9471
20.3044
19.6958
19.1213
18.5796
18.0689
17.5868
17.1305
16.6972
16.2841
15.8888
15.5099
15.1465
14.7992
14.4694
14.1595
13.8724
13.6115
13.3779
174.786
231.02
197.832
176.651
162.442
151.898
143.567
136.832
131.429
127.225
124.116
121.994
120.734
120.202
120.261
120.78
121.641
122.738
123.981
125.295
126.617
127.896
129.091
130.172
131.115
131.903
132.526
132.981
133.27
133.398
133.377
133.222
132.951
132.587
132.155
131.682
131.199
130.737
130.328
130.006
129.804
129.754
129.887
130.233
130.817
131.661
132.786
134.205
135.928
137.961
140.303
142.949
145.889
149.108
152.6
156.352
160.341
164.539
168.913
173.425
178.029
182.675
187.305
191.852
196.243
200.401
204.242
207.682
210.637
213.026
214.775
215.813
216.076
215.502
214.03
211.594
208.13
203.577
197.891
191.062
183.127
174.192
164.431
154.082
143.413
132.726
122.282
112.353
103.058
94.5082
86.7591
79.8286
73.7048
68.3522
63.7192
59.7446
56.3629
53.5086
51.1104
49.1117
47.46
46.1076
45.0116
44.1343
43.4426
42.9084
42.5067
42.2162
42.0188
41.8993
41.8439
41.8408
41.8801
41.9527
42.0509
42.1677
42.2966
42.4319
42.5683
42.7008
42.8249
42.9361
43.0304
43.1042
43.1539
43.1762
43.1682
43.1272
43.0506
42.9364
42.7827
42.5878
42.3506
42.0699
41.7458
41.3792
40.9695
40.5168
40.0214
39.4841
38.9058
38.2878
37.6317
36.9393
36.2125
35.4537
34.6654
33.8503
33.0116
32.1527
31.277
30.3887
29.4918
28.5909
27.6906
26.7957
25.9112
25.0418
24.1924
23.3674
22.5706
21.8055
21.0747
20.3797
19.7213
19.0991
18.5121
17.958
17.4342
16.9377
16.4653
16.0141
15.5821
15.1679
14.7714
14.3935
14.0365
13.7032
13.3967
13.1188
173.859
226.834
193.05
172.165
158.647
148.992
141.618
135.817
131.266
127.797
125.301
123.675
122.811
122.595
122.908
123.634
124.665
125.902
127.258
128.659
130.042
131.355
132.555
133.609
134.493
135.19
135.688
135.983
136.077
135.977
135.695
135.249
134.66
133.953
133.159
132.311
131.443
130.593
129.801
129.106
128.547
128.16
127.983
128.045
128.376
128.998
129.93
131.185
132.769
134.686
136.932
139.5
142.378
145.55
149.005
152.729
156.703
160.904
165.306
169.877
174.582
179.374
184.2
188.999
193.697
198.214
202.463
206.352
209.792
212.697
214.991
216.608
217.494
217.6
216.878
215.274
212.718
209.129
204.42
198.517
191.386
183.058
173.659
163.412
152.57
141.589
130.704
120.175
110.205
100.947
92.4993
84.9065
78.1734
72.2727
67.1547
62.7561
59.0071
55.8341
53.163
50.9321
49.0838
47.5655
46.3302
45.3364
44.5481
43.9342
43.468
43.1264
42.8897
42.7413
42.6665
42.6527
42.6891
42.766
42.8749
43.0081
43.1589
43.3208
43.488
43.6553
43.8176
43.9701
44.1084
44.2283
44.326
44.3977
44.4401
44.4501
44.4247
44.3613
44.2579
44.1122
43.9226
43.6878
43.4066
43.0797
42.707
42.2881
41.8231
41.3123
40.7565
40.1565
39.5137
38.8296
38.106
37.3449
36.5486
35.7196
34.8609
33.9755
33.067
32.1391
31.1961
30.2424
29.2828
28.3224
27.3665
26.4204
25.4897
24.5795
23.6948
22.8401
22.0191
21.2347
20.4887
19.7819
19.1138
18.4829
17.8868
17.3225
16.7864
16.2754
15.7864
15.3175
14.8678
14.4377
14.0287
13.6435
13.2852
12.9558
172.397
221.797
188.086
167.825
155.066
146.242
139.725
134.753
130.96
128.156
126.221
125.058
124.57
124.657
125.216
126.143
127.339
128.711
130.176
131.659
133.098
134.439
135.637
136.658
137.475
138.069
138.429
138.55
138.435
138.091
137.532
136.78
135.859
134.8
133.637
132.412
131.164
129.939
128.783
127.741
126.857
126.174
125.727
125.551
125.673
126.112
126.884
127.996
129.451
131.247
133.376
135.829
138.592
141.651
144.992
148.6
152.462
156.564
160.888
165.415
170.116
174.959
179.896
184.872
189.816
194.643
199.26
203.564
207.45
210.82
213.587
215.68
217.051
217.668
217.51
216.55
214.746
212.022
208.273
203.377
197.221
189.74
180.973
171.163
160.585
149.548
138.371
127.368
116.811
106.909
97.8073
89.585
82.2688
75.8428
70.2612
65.4598
61.3651
57.8914
54.9667
52.5226
50.4952
48.8268
47.4659
46.3673
45.4921
44.8067
44.2822
43.8942
43.6217
43.4467
43.3539
43.33
43.3634
43.444
43.5627
43.7115
43.8832
44.0708
44.2682
44.4697
44.6699
44.8637
45.0463
45.2132
45.36
45.4829
45.5779
45.6415
45.6705
45.662
45.6132
45.5218
45.3856
45.2029
44.9722
44.6926
44.3647
43.9881
43.5623
43.0875
42.5639
41.9922
41.3735
40.7088
39.9998
39.2481
38.4557
37.625
36.7584
35.8589
34.9297
33.9744
32.9969
32.0017
30.9935
29.9774
28.959
27.9441
26.9386
25.9484
24.9796
24.0375
23.1272
22.2527
21.4174
20.623
19.8703
19.1587
18.4861
17.8498
17.2462
16.6715
16.1222
15.5953
15.0891
14.6032
14.1386
13.6975
13.2827
12.8969
180.813
204.056
180.442
163.133
151.688
143.779
138.055
133.805
130.663
128.429
126.979
126.22
126.063
126.421
127.201
128.309
129.655
131.15
132.713
134.272
135.761
137.127
138.322
139.31
140.062
140.558
140.786
140.74
140.423
139.845
139.022
137.979
136.745
135.356
133.853
132.282
130.692
129.135
127.663
126.326
125.173
124.249
123.59
123.23
123.192
123.491
124.136
125.13
126.467
128.14
130.138
132.446
135.053
137.943
141.102
144.519
148.187
152.101
156.254
160.636
165.235
170.029
174.982
180.048
185.161
190.236
195.171
199.852
204.156
207.961
211.158
213.663
215.42
216.404
216.616
216.069
214.759
212.651
209.653
205.628
200.411
193.833
185.973
176.886
166.764
155.898
144.639
133.349
122.36
111.943
102.292
93.5283
85.7034
78.8167
72.8289
67.6757
63.2794
59.5503
56.4119
53.7897
51.6143
49.8228
48.3594
47.1757
46.2299
45.4863
44.9144
44.4884
44.1864
43.9896
43.8821
43.85