/*--------------------------------*- C++ -*----------------------------------*\
  =========                 |
  \\      /  F ield         | OpenFOAM: The Open Source CFD Toolbox
   \\    /   O peration     | Website:  https://openfoam.org
    \\  /    A nd           | Version:  9
     \\/     M anipulation  |
\*---------------------------------------------------------------------------*/
FoamFile
{
    format      ascii;
    class       volScalarField;
    location    "0.23";
    object      k;
}
// * * * * * * * * * * * * * * * * * * * * * * * * * * * * * * * * * * * * * //

dimensions      [0 2 -2 0 0 0 0];

internalField   nonuniform List<scalar> 
12225
(
0.266183
0.160198
0.103583
0.0737255
0.057423
0.0478175
0.0416017
0.037276
0.0341774
0.0319684
0.0304036
0.0292602
0.0283478
0.0275449
0.02688
0.0269541
0.0372618
0.138497
0.333929
0.24914
0.19589
0.163944
0.143416
0.129011
0.118134
0.109571
0.102792
0.0975308
0.0935429
0.0905208
0.0881209
0.0860487
0.0842663
0.0842735
0.0994176
0.228756
0.344967
0.28536
0.239055
0.206038
0.182263
0.164622
0.151155
0.140729
0.132715
0.126713
0.122368
0.119285
0.117045
0.115277
0.113964
0.11548
0.136916
0.279289
0.349994
0.30465
0.265053
0.233603
0.209086
0.189941
0.174941
0.163252
0.154321
0.147732
0.143085
0.139948
0.137868
0.136461
0.135849
0.139148
0.165977
0.310247
0.353111
0.316406
0.282277
0.253262
0.229335
0.209848
0.194147
0.181717
0.17216
0.165121
0.160218
0.157023
0.155086
0.154054
0.154215
0.159089
0.188149
0.326697
0.35519
0.324136
0.294339
0.267873
0.245153
0.226026
0.210221
0.197481
0.187571
0.180233
0.175142
0.171906
0.170107
0.169449
0.170351
0.176409
0.205572
0.332802
0.356632
0.329465
0.303082
0.278997
0.257726
0.23936
0.223856
0.211141
0.201119
0.193632
0.188434
0.18519
0.183533
0.18323
0.184779
0.191602
0.21946
0.332005
0.357653
0.333244
0.309551
0.287586
0.267813
0.250417
0.235477
0.223036
0.213101
0.205606
0.200384
0.197169
0.195658
0.195679
0.197753
0.204976
0.230687
0.327086
0.35838
0.335963
0.314392
0.294267
0.27594
0.259604
0.245387
0.233395
0.223703
0.216321
0.211155
0.20801
0.206648
0.206952
0.209425
0.216762
0.239914
0.320226
0.358899
0.33793
0.318028
0.299475
0.28249
0.267227
0.253818
0.24239
0.233061
0.225891
0.220851
0.217813
0.216603
0.217146
0.219903
0.227148
0.247634
0.313011
0.359267
0.33935
0.320755
0.303526
0.287754
0.27353
0.260958
0.250164
0.241279
0.2344
0.229546
0.226649
0.225591
0.226332
0.229277
0.236294
0.254209
0.306488
0.359505
0.340287
0.322619
0.306399
0.29161
0.278279
0.266468
0.256283
0.247853
0.241292
0.236653
0.233912
0.232994
0.233885
0.236931
0.243661
0.259405
0.301603
0.359679
0.340984
0.324053
0.30868
0.294764
0.282263
0.271195
0.261632
0.253691
0.247491
0.243108
0.240552
0.239787
0.240819
0.243941
0.250374
0.264158
0.29776
0.359819
0.34155
0.325257
0.310664
0.297592
0.285933
0.275645
0.266763
0.259377
0.253601
0.249528
0.247196
0.246602
0.247767
0.250923
0.256989
0.268844
0.29481
0.359923
0.341982
0.326207
0.312288
0.299987
0.289133
0.279625
0.271447
0.264659
0.259358
0.255642
0.253568
0.253158
0.254441
0.257586
0.263232
0.273279
0.292848
0.359995
0.342285
0.326901
0.313521
0.301874
0.291736
0.282953
0.275458
0.269269
0.264462
0.261126
0.259327
0.259102
0.26048
0.263569
0.268762
0.277187
0.291696
0.360037
0.342475
0.327356
0.314367
0.303222
0.293664
0.285494
0.2786
0.272957
0.268612
0.265635
0.264091
0.26402
0.265445
0.26842
0.27314
0.280172
0.290899
0.360053
0.342564
0.327596
0.314851
0.304041
0.294893
0.287177
0.280743
0.27553
0.271546
0.26884
0.267464
0.267454
0.268824
0.271583
0.27579
0.281646
0.28967
0.360039
0.342548
0.327614
0.314958
0.304301
0.295366
0.287907
0.281744
0.276779
0.272984
0.270378
0.268996
0.268864
0.269992
0.272366
0.275969
0.280804
0.286952
0.359992
0.342397
0.327332
0.314537
0.30376
0.294739
0.287231
0.281041
0.276043
0.272181
0.269443
0.267843
0.267398
0.268115
0.269978
0.272954
0.27699
0.282023
0.359912
0.342103
0.326729
0.313566
0.302405
0.293026
0.285204
0.278745
0.273506
0.269403
0.266395
0.264472
0.263634
0.263878
0.26519
0.267536
0.270853
0.275041
0.359764
0.341525
0.325534
0.311653
0.299761
0.289704
0.281293
0.274337
0.268677
0.264196
0.260816
0.258495
0.257208
0.256938
0.257665
0.259356
0.261949
0.265343
0.35949
0.340444
0.323362
0.308294
0.295266
0.284207
0.274963
0.267335
0.261134
0.256196
0.252399
0.249658
0.247918
0.247141
0.247297
0.24835
0.250246
0.252885
0.359006
0.338545
0.319696
0.302866
0.288288
0.275957
0.265719
0.257339
0.250569
0.245182
0.240996
0.237876
0.235733
0.234508
0.234157
0.234643
0.235912
0.237873
0.358195
0.335378
0.313867
0.294615
0.278101
0.264346
0.253095
0.244022
0.236781
0.231056
0.226594
0.223209
0.220775
0.219213
0.21847
0.218504
0.219264
0.220664
0.356891
0.330238
0.304876
0.28253
0.263794
0.248638
0.236562
0.227038
0.219574
0.213742
0.20921
0.205744
0.203191
0.201456
0.200479
0.200216
0.200618
0.201604
0.35484
0.321855
0.291032
0.264974
0.244039
0.22776
0.215346
0.205843
0.19857
0.192979
0.18867
0.185376
0.182928
0.181225
0.180207
0.17983
0.18005
0.180788
0.351616
0.307524
0.269032
0.238985
0.216448
0.199915
0.187964
0.179191
0.172681
0.167786
0.164072
0.161262
0.159193
0.157769
0.156935
0.156652
0.156878
0.157545
0.344518
0.279553
0.231355
0.198265
0.17577
0.160485
0.150081
0.142928
0.137871
0.134224
0.13156
0.129627
0.128283
0.12745
0.127081
0.12714
0.127595
0.128391
0.299884
0.213991
0.15802
0.121753
0.0985028
0.0837626
0.0744781
0.0687532
0.065088
0.0625941
0.0608205
0.0595457
0.0586651
0.0581276
0.0579036
0.0579684
0.0582962
0.0588506
0.228737
0.253831
0.272317
0.281283
0.28299
0.279124
0.270685
0.258592
0.246198
0.235029
0.224936
0.216744
0.211857
0.211505
0.215673
0.222287
0.228231
0.231961
0.234648
0.240962
0.252994
0.267701
0.283865
0.300809
0.318136
0.335586
0.352982
0.370202
0.387159
0.403794
0.42007
0.435958
0.451444
0.466516
0.481166
0.495388
0.509176
0.522523
0.535419
0.547855
0.559818
0.571294
0.58227
0.592728
0.602654
0.612032
0.62085
0.629099
0.636774
0.643881
0.650438
0.65648
0.662069
0.667301
0.671789
0.675255
0.677663
0.678961
0.679094
0.678002
0.675628
0.671921
0.666835
0.660335
0.6524
0.643023
0.632212
0.619995
0.606422
0.591562
0.575509
0.558378
0.540304
0.521443
0.501971
0.482075
0.461955
0.441815
0.421861
0.402295
0.38331
0.365084
0.347774
0.331516
0.31642
0.302568
0.290014
0.278786
0.268883
0.260286
0.252952
0.246824
0.241834
0.237903
0.234949
0.232886
0.23163
0.231104
0.231235
0.232006
0.233218
0.234719
0.236444
0.23833
0.24032
0.242359
0.2444
0.246401
0.248323
0.250136
0.251812
0.253327
0.254663
0.255803
0.256734
0.257447
0.257933
0.258189
0.258214
0.25801
0.257583
0.256944
0.256108
0.255096
0.253898
0.252501
0.250912
0.249143
0.247208
0.24512
0.242897
0.240554
0.238108
0.235575
0.232972
0.230315
0.227616
0.224891
0.222151
0.219406
0.216667
0.213941
0.211235
0.208556
0.205906
0.20329
0.200709
0.198166
0.195659
0.193188
0.190751
0.188351
0.186021
0.184025
0.184208
0.195886
0.19378
0.182493
0.192644
0.18574
0.192013
0.18412
0.191354
0.180764
0.19487
0.188056
0.200218
0.193136
0.200336
0.191377
0.196096
0.195572
0.190671
0.18667
0.195009
0.187628
0.192733
0.197076
0.197818
0.199057
0.361891
0.426919
0.462352
0.478984
0.483652
0.481137
0.474579
0.466377
0.458657
0.452377
0.452732
0.464542
0.490082
0.527308
0.570273
0.610287
0.638615
0.657165
0.66947
0.679036
0.687839
0.696459
0.704984
0.713433
0.721885
0.730451
0.739243
0.748349
0.75783
0.767721
0.778038
0.788779
0.799938
0.811501
0.823455
0.835783
0.848473
0.861508
0.874874
0.888555
0.902531
0.91678
0.931273
0.945977
0.960851
0.975847
0.990906
1.00596
1.02094
1.03575
1.05029
1.06446
1.07815
1.09113
1.10314
1.11423
1.12428
1.13309
1.14048
1.14626
1.15023
1.1522
1.15199
1.14942
1.14434
1.13664
1.12622
1.11303
1.09705
1.07831
1.05691
1.03298
1.00671
0.97833
0.948132
0.916441
0.88362
0.850058
0.81616
0.782336
0.748993
0.716518
0.685271
0.655575
0.627707
0.601892
0.578299
0.55704
0.53817
0.521693
0.507566
0.495704
0.485989
0.478279
0.472415
0.468225
0.465537
0.464176
0.463973
0.464773
0.466262
0.468336
0.470879
0.47377
0.4769
0.480166
0.483477
0.486752
0.489921
0.492924
0.495707
0.498225
0.500441
0.502322
0.503841
0.504976
0.50571
0.506029
0.505925
0.505392
0.504431
0.503045
0.50124
0.499027
0.496456
0.493559
0.490325
0.486767
0.482905
0.478765
0.474375
0.469766
0.464969
0.460017
0.454941
0.449774
0.444546
0.439287
0.434025
0.428787
0.423597
0.418477
0.413448
0.408527
0.403729
0.399068
0.394553
0.390193
0.385992
0.381952
0.378074
0.374357
0.370807
0.367458
0.364257
0.358794
0.355902
0.355505
0.354006
0.348991
0.348287
0.343184
0.342141
0.337142
0.335526
0.329468
0.328674
0.325273
0.321553
0.314924
0.312935
0.307518
0.30143
0.293008
0.288598
0.280613
0.275002
0.26814
0.260738
0.253441
0.451341
0.524473
0.575069
0.603284
0.616109
0.619806
0.619645
0.620646
0.622436
0.630185
0.64905
0.680787
0.72248
0.767231
0.807337
0.837388
0.856013
0.865878
0.870909
0.874427
0.87839
0.883631
0.890396
0.898684
0.908395
0.919377
0.931447
0.94441
0.958072
0.972254
0.986798
1.00158
1.0165
1.0315
1.04654
1.0616
1.07669
1.09184
1.10705
1.12238
1.13783
1.15346
1.16927
1.18528
1.20151
1.21794
1.23456
1.25134
1.26824
1.28519
1.30213
1.31897
1.33562
1.3518
1.36741
1.38228
1.39621
1.40895
1.42025
1.42984
1.43745
1.4428
1.44563
1.44568
1.44272
1.43655
1.42702
1.414
1.39742
1.3773
1.35367
1.32667
1.29649
1.26339
1.22769
1.18977
1.15008
1.10907
1.06727
1.02518
0.983327
0.942226
0.902358
0.864165
0.828038
0.794308
0.763235
0.73501
0.709749
0.687497
0.668234
0.651883
0.638315
0.627363
0.61883
0.612501
0.60815
0.605548
0.604464
0.604666
0.605861
0.60786
0.610491
0.613596
0.617032
0.620673
0.624403
0.628123
0.631745
0.635194
0.638403
0.641316
0.643885
0.646069
0.647832
0.649147
0.649989
0.650341
0.650187
0.649519
0.648335
0.646633
0.644419
0.641702
0.638495
0.634832
0.630765
0.626293
0.621431
0.616201
0.610634
0.604762
0.598619
0.592241
0.585665
0.578929
0.572069
0.565121
0.55812
0.551101
0.544097
0.537138
0.530254
0.523473
0.516821
0.51032
0.503991
0.497852
0.491917
0.486198
0.480703
0.475437
0.470406
0.465606
0.460955
0.455957
0.451766
0.448306
0.444605
0.440267
0.43688
0.432571
0.429095
0.424803
0.420932
0.416175
0.412258
0.407458
0.40231
0.395936
0.390268
0.383431
0.376123
0.367586
0.359497
0.349778
0.340429
0.329601
0.317978
0.305891
0.531751
0.631528
0.702937
0.74168
0.759189
0.765258
0.767768
0.769293
0.773652
0.785569
0.80752
0.838556
0.874324
0.908901
0.937406
0.957748
0.970788
0.979229
0.986022
0.993355
1.00239
1.01351
1.02663
1.04144
1.05756
1.0746
1.09219
1.11
1.12778
1.14533
1.16251
1.17925
1.19552
1.21133
1.22674
1.24182
1.25666
1.27134
1.28598
1.30068
1.31551
1.33058
1.34595
1.36168
1.37783
1.39443
1.41148
1.429
1.44695
1.4653
1.48397
1.50288
1.5219
1.54079
1.55937
1.57741
1.59464
1.61079
1.62555
1.63861
1.64963
1.65828
1.66423
1.66717
1.66681
1.66289
1.65519
1.64352
1.62779
1.60792
1.58396
1.55598
1.52417
1.48876
1.4501
1.40858
1.36466
1.31886
1.27174
1.22389
1.17592
1.12842
1.08197
1.03711
0.994328
0.954056
0.916642
0.882354
0.851379
0.823819
0.799695
0.778956
0.761486
0.747117
0.735639
0.726811
0.720377
0.716069
0.71362
0.712741
0.713132
0.714552
0.71679
0.719657
0.722983
0.726616
0.730422
0.734283
0.738094
0.741765
0.745218
0.748385
0.751209
0.753638
0.75563
0.757149
0.758164
0.758649
0.758586
0.75796
0.756762
0.754987
0.752636
0.749714
0.746233
0.742207
0.737665
0.732664
0.727205
0.721305
0.714988
0.708286
0.70123
0.693858
0.686205
0.67831
0.670213
0.661951
0.653565
0.645093
0.636573
0.628043
0.61954
0.6111
0.602757
0.594544
0.586494
0.578634
0.57099
0.563586
0.55644
0.549567
0.542977
0.53667
0.530607
0.524692
0.519172
0.514008
0.508982
0.50395
0.499243
0.494395
0.48978
0.484961
0.480143
0.475046
0.469928
0.464321
0.458347
0.451712
0.444731
0.437042
0.428801
0.419796
0.410303
0.399842
0.388835
0.376784
0.363879
0.350314
0.602971
0.742592
0.838208
0.888855
0.911138
0.918006
0.91594
0.910878
0.909294
0.915076
0.92934
0.950429
0.974796
0.99864
1.01943
1.03656
1.05099
1.06437
1.07825
1.0936
1.11075
1.12959
1.14979
1.17088
1.1924
1.21395
1.23516
1.25577
1.27558
1.29449
1.31245
1.32947
1.34561
1.36098
1.3757
1.38991
1.40377
1.41744
1.43107
1.44481
1.45881
1.47318
1.48805
1.5035
1.51961
1.53643
1.554
1.57233
1.5914
1.61115
1.63151
1.65238
1.67359
1.69494
1.71619
1.73708
1.75734
1.77663
1.79463
1.81098
1.82531
1.83726
1.84643
1.85249
1.85508
1.85388
1.84864
1.83911
1.82514
1.80662
1.78352
1.75589
1.72387
1.68767
1.6476
1.60405
1.55749
1.50845
1.45751
1.40532
1.35253
1.29981
1.24781
1.19718
1.14848
1.10224
1.05891
1.01883
0.982278
0.949421
0.920337
0.895017
0.873375
0.855257
0.840457
0.828725
0.819787
0.813351
0.809123
0.806773
0.805979
0.806466
0.80799
0.810332
0.813294
0.816702
0.820398
0.824244
0.82812
0.83192
0.835552
0.838936
0.842002
0.844691
0.84695
0.848733
0.850003
0.850727
0.850878
0.850435
0.849383
0.847711
0.845414
0.842492
0.83895
0.834799
0.830052
0.824742
0.818918
0.812586
0.805761
0.798469
0.790738
0.782602
0.774096
0.765257
0.756124
0.746738
0.737138
0.727367
0.717466
0.707477
0.697444
0.687409
0.677415
0.667505
0.657718
0.648096
0.638677
0.629495
0.620583
0.611966
0.603666
0.595695
0.588044
0.580699
0.573711
0.567059
0.560691
0.554535
0.54863
0.542835
0.537189
0.531534
0.525856
0.520046
0.514079
0.507778
0.501116
0.49397
0.486328
0.478074
0.469175
0.459639
0.449463
0.438511
0.42683
0.414303
0.401059
0.387232
0.647774
0.841462
0.967887
1.03219
1.05988
1.06338
1.05355
1.03997
1.02927
1.02534
1.02937
1.04027
1.05568
1.07326
1.09145
1.10978
1.12851
1.14819
1.16922
1.19172
1.21551
1.24022
1.26541
1.2906
1.31539
1.33941
1.36241
1.3842
1.40467
1.42379
1.44159
1.45817
1.47363
1.48815
1.5019
1.51508
1.52789
1.54052
1.55317
1.56604
1.57928
1.59306
1.60752
1.62277
1.6389
1.65598
1.67406
1.69313
1.71319
1.73418
1.756
1.77853
1.8016
1.82502
1.84855
1.87191
1.89481
1.9169
1.93785
1.95726
1.97475
1.9899
2.00233
2.01162
2.0174
2.01931
2.01703
2.01028
1.99884
1.98254
1.96131
1.93513
1.90408
1.86835
1.82818
1.78393
1.73605
1.68505
1.63154
1.57617
1.51963
1.46266
1.40596
1.35026
1.29623
1.24448
1.19554
1.14988
1.10784
1.06967
1.03553
1.00545
0.979402
0.957254
0.938816
0.923846
0.912062
0.903159
0.896822
0.892689
0.890417
0.889703
0.890273
0.891879
0.894297
0.897326
0.900787
0.904521
0.908388
0.912267
0.91605
0.919644
0.922967
0.925947
0.928522
0.930637
0.932245
0.933304
0.933781
0.933647
0.932878
0.931456
0.929371
0.926615
0.923187
0.919089
0.914332
0.908926
0.902911
0.896326
0.889174
0.881473
0.873245
0.86452
0.855329
0.845707
0.835692
0.825322
0.814638
0.803684
0.792502
0.78114
0.769643
0.758061
0.746441
0.734836
0.723294
0.711868
0.700605
0.689554
0.678759
0.668262
0.658096
0.648289
0.638855
0.629804
0.621152
0.612893
0.605009
0.597459
0.590218
0.583218
0.576418
0.569723
0.563074
0.556379
0.549561
0.542509
0.535151
0.527399
0.519184
0.510428
0.501077
0.491068
0.480449
0.469162
0.457195
0.444534
0.431331
0.4177
0.668424
0.923985
1.08029
1.15768
1.18729
1.18826
1.17395
1.15421
1.13614
1.12419
1.12025
1.1241
1.13431
1.14921
1.16744
1.18818
1.21098
1.23559
1.26172
1.289
1.31701
1.34527
1.37329
1.40066
1.42702
1.45209
1.47567
1.49765
1.51799
1.53671
1.5539
1.56969
1.58423
1.59774
1.61043
1.62252
1.63425
1.64584
1.65751
1.66949
1.68196
1.6951
1.70907
1.724
1.74
1.75714
1.77546
1.79499
1.8157
1.83752
1.86036
1.88408
1.90851
1.93348
1.95877
1.98409
2.00916
2.03364
2.05715
2.07932
2.09974
2.11798
2.13362
2.14623
2.15539
2.16072
2.16185
2.15844
2.15022
2.13698
2.11855
2.09486
2.06593
2.03186
1.99285
1.9492
1.90129
1.84963
1.79478
1.7374
1.67821
1.61797
1.55746
1.49745
1.43872
1.38196
1.32781
1.27683
1.22948
1.18608
1.14687
1.11196
1.08136
1.055
1.03271
1.01426
0.999382
0.987757
0.979061
0.972903
0.968925
0.9668
0.966229
0.966936
0.96867
0.971205
0.974338
0.977888
0.981696
0.985623
0.989544
0.993353
0.996954
1.00026
1.00321
1.00572
1.00774
1.00923
1.01013
1.01042
1.01006
1.00902
1.00729
1.00484
1.00168
0.9978
0.993196
0.987876
0.981851
0.975169
0.967851
0.959903
0.95134
0.942185
0.932465
0.922211
0.911458
0.900242
0.888604
0.876586
0.864233
0.851591
0.838712
0.825646
0.81245
0.799178
0.785891
0.772646
0.759505
0.746526
0.733768
0.721285
0.709127
0.697338
0.685951
0.674992
0.664483
0.654432
0.644832
0.635661
0.626887
0.61846
0.610324
0.602401
0.594617
0.586884
0.579109
0.571196
0.563059
0.554613
0.545777
0.536482
0.526669
0.51629
0.505302
0.493739
0.481614
0.468954
0.455927
0.442633
0.64376
0.983894
1.16373
1.25022
1.28531
1.28884
1.27458
1.2529
1.23148
1.21541
1.20726
1.20754
1.21545
1.22961
1.24865
1.27142
1.29701
1.32468
1.35379
1.38375
1.41398
1.44396
1.47324
1.50143
1.52822
1.55338
1.57676
1.5983
1.618
1.63591
1.65216
1.66689
1.68031
1.69263
1.70409
1.71494
1.72543
1.73582
1.74633
1.75721
1.76867
1.7809
1.79408
1.80834
1.82381
1.84057
1.85867
1.87813
1.89893
1.921
1.94426
1.96856
1.99373
2.01963
2.04605
2.07276
2.09946
2.12583
2.15149
2.17606
2.19912
2.22026
2.23901
2.25495
2.26763
2.27663
2.28154
2.28198
2.27763
2.2682
2.25347
2.2333
2.20762
2.17643
2.13987
2.09815
2.05159
2.00062
1.94578
1.88769
1.82706
1.76467
1.70135
1.63794
1.57527
1.51415
1.45532
1.39944
1.34707
1.29865
1.25449
1.21479
1.17964
1.149
1.12275
1.10069
1.08255
1.06803
1.0568
1.04844
1.04258
1.03889
1.03703
1.03671
1.03766
1.03961
1.04234
1.04565
1.04936
1.05332
1.05737
1.06141
1.06531
1.06898
1.07234
1.07532
1.07783
1.07983
1.08126
1.08207
1.08222
1.08169
1.08044
1.07845
1.0757
1.07218
1.06788
1.0628
1.05695
1.05033
1.043
1.03496
1.02622
1.0168
1.00671
0.995977
0.984639
0.972725
0.960275
0.947329
0.933931
0.920128
0.905973
0.89152
0.876826
0.861953
0.846966
0.831932
0.81692
0.801999
0.787241
0.772713
0.75848
0.744604
0.731134
0.718117
0.705586
0.693566
0.682064
0.671073
0.660571
0.650517
0.640857
0.631522
0.622434
0.613504
0.604637
0.595736
0.586708
0.577464
0.567921
0.558007
0.547664
0.536852
0.525537
0.51371
0.501417
0.488751
0.47588
0.462898
0.667651
1.02732
1.218
1.31416
1.35691
1.3661
1.35568
1.33626
1.31575
1.29958
1.29077
1.29033
1.29788
1.31229
1.3322
1.35631
1.38347
1.41274
1.44329
1.47441
1.50548
1.53597
1.56544
1.59353
1.61996
1.64455
1.66717
1.68779
1.70643
1.72316
1.73813
1.75151
1.7635
1.77434
1.78428
1.79359
1.80252
1.81135
1.82032
1.8297
1.8397
1.85054
1.8624
1.87544
1.88979
1.90555
1.92277
1.94148
1.96168
1.98332
2.00629
2.03048
2.05571
2.08186
2.10879
2.13628
2.16405
2.19179
2.21914
2.24571
2.2711
2.29488
2.3166
2.3358
2.35203
2.36484
2.37379
2.37848
2.37852
2.37358
2.36337
2.34765
2.32629
2.29919
2.26639
2.22799
2.18423
2.13543
2.08206
2.0247
1.96401
1.90077
1.83583
1.77008
1.70442
1.63976
1.57693
1.51672
1.45979
1.40669
1.35785
1.31355
1.27395
1.23908
1.20887
1.18316
1.1617
1.1442
1.13032
1.11965
1.11181
1.10643
1.10319
1.10175
1.10182
1.10312
1.1054
1.10844
1.11203
1.116
1.12019
1.12446
1.12869
1.13276
1.13659
1.14007
1.14315
1.14573
1.14777
1.1492
1.14998
1.15006
1.14941
1.148
1.14579
1.14277
1.13893
1.13425
1.12872
1.12236
1.11517
1.1072
1.09844
1.08891
1.07861
1.06757
1.05581
1.04336
1.03026
1.01654
1.00224
0.987423
0.972127
0.956411
0.940335
0.923963
0.907363
0.89061
0.873778
0.856949
0.840201
0.823617
0.807276
0.791254
0.775621
0.76044
0.745763
0.731632
0.718073
0.705096
0.69269
0.680831
0.669473
0.658555
0.648001
0.637723
0.627625
0.617608
0.607573
0.597425
0.587076
0.576451
0.56549
0.554154
0.54242
0.53029
0.517804
0.50503
0.492196
0.479388
0.622876
1.0243
1.24246
1.35289
1.40535
1.42256
1.41899
1.40522
1.38909
1.37606
1.36935
1.37029
1.37883
1.39409
1.41483
1.43976
1.46771
1.49762
1.52861
1.55993
1.59096
1.62117
1.65012
1.67748
1.70301
1.72652
1.74793
1.76721
1.78439
1.79956
1.81288
1.82451
1.83468
1.84363
1.85162
1.85892
1.86581
1.87256
1.87946
1.88675
1.89469
1.9035
1.91337
1.9245
1.93701
1.95104
1.96664
1.98388
2.00275
2.02323
2.04523
2.06864
2.0933
2.11909
2.14594
2.17366
2.20198
2.23061
2.2592
2.28738
2.31474
2.34086
2.36528
2.38757
2.40724
2.42384
2.43693
2.44605
2.45081
2.45081
2.44571
2.43522
2.41911
2.39719
2.36937
2.33565
2.29614
2.25105
2.20074
2.14566
2.08645
2.02382
1.95863
1.89179
1.82427
1.75705
1.69109
1.62728
1.5664
1.50913
1.45602
1.40743
1.36362
1.3247
1.29066
1.26136
1.23661
1.21612
1.19958
1.18655
1.17666
1.16955
1.16486
1.16225
1.16139
1.162
1.16379
1.16652
1.16998
1.17395
1.17828
1.1828
1.18738
1.19189
1.19622
1.20028
1.20397
1.20721
1.20993
1.21207
1.21357
1.21437
1.21444
1.21371
1.21218
1.2098
1.20654
1.2024
1.19736
1.19141
1.18454
1.1768
1.16819
1.15871
1.14838
1.13719
1.12519
1.11238
1.09879
1.08447
1.06946
1.05379
1.03751
1.02069
1.00338
0.98564
0.967553
0.949191
0.930636
0.911975
0.893296
0.874693
0.856258
0.838081
0.820251
0.802849
0.785946
0.769604
0.753868
0.73877
0.724317
0.710501
0.697291
0.684636
0.672467
0.660702
0.649245
0.637993
0.626842
0.615691
0.604444
0.593018
0.581351
0.569399
0.557144
0.544597
0.531806
0.518853
0.505878
0.493046
0.635126
1.03196
1.25599
1.3745
1.4357
1.46189
1.46703
1.46118
1.4518
1.44415
1.44145
1.44523
1.45571
1.47228
1.49392
1.51945
1.54773
1.57776
1.60863
1.63961
1.67007
1.69949
1.72747
1.75368
1.77789
1.79994
1.81974
1.83728
1.8526
1.8658
1.87703
1.88647
1.89434
1.90089
1.90638
1.91111
1.91536
1.91942
1.92358
1.92812
1.9333
1.93936
1.94654
1.95503
1.96499
1.97657
1.98987
2.00496
2.02186
2.04056
2.06101
2.08311
2.10672
2.13171
2.15806
2.1856
2.21408
2.24322
2.27268
2.30209
2.33106
2.35915
2.38595
2.41098
2.4338
2.45394
2.47096
2.4844
2.49385
2.4989
2.49917
2.49432
2.48405
2.46809
2.44625
2.41839
2.38448
2.34458
2.29889
2.24774
2.19164
2.13123
2.06731
2.0008
1.93271
1.86411
1.79604
1.72952
1.66547
1.6047
1.54785
1.49544
1.4478
1.40513
1.36748
1.33478
1.30686
1.28347
1.2643
1.24893
1.23699
1.22814
1.22199
1.21818
1.21639
1.21628
1.21757
1.21999
1.2233
1.22729
1.23176
1.23655
1.2415
1.24647
1.25135
1.25602
1.26038
1.26434
1.26782
1.27075
1.27305
1.27466
1.27554
1.27562
1.27487
1.27325
1.27072
1.26726
1.26285
1.25746
1.2511
1.24374
1.23544
1.22619
1.216
1.20485
1.19278
1.17979
1.16592
1.15119
1.13563
1.1193
1.10223
1.08448
1.06611
1.04717
1.02776
1.00793
0.98779
0.967416
0.946908
0.926368
0.905899
0.885606
0.865593
0.845957
0.826793
0.808181
0.79019
0.772871
0.756258
0.74036
0.725166
0.71064
0.696726
0.683347
0.670412
0.657817
0.645454
0.633212
0.620987
0.608687
0.596238
0.583591
0.570724
0.55765
0.54442
0.531122
0.517893
0.504822
0.645708
1.03436
1.25961
1.38364
1.45263
1.48794
1.50255
1.50576
1.50442
1.50343
1.50591
1.51349
1.52661
1.54492
1.56762
1.59372
1.6222
1.65211
1.6826
1.71295
1.74255
1.77092
1.79763
1.8224
1.84499
1.86525
1.88311
1.89854
1.91161
1.92241
1.93108
1.93783
1.94287
1.94646
1.94888
1.95042
1.95139
1.95211
1.95286
1.95397
1.95572
1.95838
1.96221
1.96744
1.97426
1.98284
1.99332
2.00578
2.02028
2.03684
2.05542
2.07594
2.09829
2.12229
2.14797
2.17515
2.2036
2.23302
2.26308
2.29342
2.32363
2.35332
2.38203
2.40934
2.4348
2.45797
2.47839
2.49565
2.50933
2.51904
2.5244
2.52507
2.52069
2.51097
2.49561
2.47438
2.44707
2.4136
2.37396
2.32831
2.27695
2.22042
2.15939
2.09477
2.02756
1.95888
1.88989
1.82171
1.75542
1.69195
1.63209
1.57644
1.52548
1.47948
1.43858
1.40275
1.37189
1.34577
1.32409
1.30646
1.29255
1.282
1.27441
1.26944
1.26671
1.2659
1.26669
1.26881
1.27198
1.27599
1.28062
1.2857
1.29104
1.29651
1.30196
1.30729
1.31237
1.3171
1.3214
1.32518
1.32836
1.33087
1.33265
1.33363
1.33378
1.33303
1.33135
1.3287
1.32505
1.32038
1.31467
1.3079
1.30007
1.29122
1.28133
1.27041
1.25846
1.24549
1.23152
1.21657
1.20068
1.18388
1.16622
1.14774
1.12851
1.10857
1.08801
1.06691
1.04535
1.02341
1.00122
0.978866
0.956468
0.934141
0.912003
0.890169
0.868751
0.847853
0.827565
0.807964
0.789108
0.771031
0.753743
0.737231
0.721454
0.706347
0.691826
0.67779
0.664125
0.650716
0.637446
0.62421
0.610923
0.59752
0.583972
0.570283
0.5565
0.54271
0.529042
0.515587
0.672292
1.05531
1.26351
1.38587
1.4602
1.50382
1.52782
1.54034
1.54751
1.55378
1.56208
1.57405
1.5903
1.61071
1.63472
1.66152
1.69023
1.71999
1.75003
1.77966
1.8083
1.83546
1.86075
1.88389
1.90464
1.92286
1.93848
1.95148
1.96192
1.9699
1.97557
1.97914
1.98083
1.98091
1.97968
1.97745
1.97455
1.97132
1.96809
1.96521
1.963
1.96177
1.9618
1.96338
1.96672
1.97204
1.97948
1.98919
2.00122
2.01561
2.03234
2.05134
2.07252
2.09566
2.12077
2.14765
2.17607
2.20571
2.23623
2.26726
2.29842
2.32929
2.35945
2.38846
2.41591
2.44134
2.46436
2.48456
2.50157
2.51503
2.5246
2.52998
2.53085
2.52691
2.51784
2.50332
2.48305
2.45674
2.42419
2.38531
2.34018
2.2891
2.23261
2.17147
2.10666
2.03934
1.97073
1.90209
1.83459
1.76939
1.70737
1.64922
1.59557
1.54681
1.50313
1.46457
1.43107
1.4025
1.37849
1.35876
1.34299
1.33084
1.32191
1.31582
1.31221
1.31073
1.31106
1.31289
1.31596
1.32001
1.32482
1.3302
1.33596
1.34195
1.34801
1.35402
1.35986
1.36542
1.37058
1.37527
1.37939
1.38287
1.38563
1.38761
1.38874
1.38897
1.38825
1.38654
1.38379
1.37997
1.37506
1.36902
1.36185
1.35356
1.34416
1.33364
1.322
1.30924
1.29537
1.28041
1.2644
1.24735
1.22931
1.21032
1.19043
1.16971
1.14822
1.12604
1.10325
1.07996
1.05625
1.03225
1.00806
0.983827
0.959667
0.935712
0.912093
0.888933
0.866346
0.844436
0.823286
0.802959
0.783492
0.764896
0.74715
0.73021
0.714001
0.698429
0.68338
0.668732
0.654357
0.640137
0.625967
0.611768
0.597491
0.583127
0.568711
0.554317
0.540066
0.526052
0.667452
1.04759
1.25423
1.37923
1.45955
1.51125
1.54431
1.56597
1.58164
1.59532
1.6097
1.62639
1.64612
1.66896
1.69455
1.72225
1.75135
1.78108
1.81073
1.83967
1.86733
1.89326
1.91707
1.93847
1.95724
1.97324
1.98639
1.99669
2.00418
2.00899
2.01126
2.01121
2.00909
2.00519
1.99982
1.99333
1.9861
1.97848
1.97086
1.96364
1.95717
1.95182
1.94792
1.94578
1.94568
1.94783
1.95244
1.95963
1.96949
1.98206
1.99732
2.01518
2.03554
2.0582
2.08303
2.10984
2.13834
2.16823
2.19914
2.23071
2.26254
2.29423
2.32536
2.35551
2.38424
2.41115
2.43583
2.45791
2.47705
2.49296
2.50537
2.51406
2.51881
2.51939
2.51554
2.50696
2.49329
2.47411
2.44902
2.41768
2.37986
2.33556
2.28506
2.22893
2.16805
2.10355
2.03671
1.9689
1.90132
1.83552
1.77236
1.71267
1.65712
1.60622
1.56027
1.51943
1.48369
1.45296
1.42692
1.40535
1.38794
1.37435
1.36419
1.3571
1.35269
1.35061
1.35053
1.35212
1.35511
1.35924
1.36426
1.36997
1.37617
1.38271
1.38941
1.39614
1.40277
1.40918
1.41525
1.4209
1.42602
1.43053
1.43434
1.43739
1.43959
1.44089
1.44123
1.44056
1.43882
1.43599
1.43201
1.42686
1.42052
1.41295
1.40421
1.39427
1.38312
1.37076
1.35719
1.34243
1.3265
1.30942
1.29122
1.27195
1.25164
1.23036
1.20817
1.18514
1.16135
1.1369
1.11189
1.08643
1.06064
1.03466
1.00862
0.982665
0.956938
0.931583
0.906737
0.882527
0.859067
0.836448
0.814738
0.793976
0.774171
0.755299
0.737305
0.720103
0.703586
0.687626
0.672088
0.656837
0.64175
0.626725
0.61169
0.596615
0.581515
0.566449
0.551518
0.536819
0.659628
1.03069
1.23732
1.36572
1.45199
1.51139
1.55307
1.58346
1.60737
1.62835
1.64886
1.67046
1.69392
1.71947
1.7469
1.77577
1.80546
1.83534
1.86475
1.89312
1.9199
1.94465
1.96699
1.98664
2.00337
2.01704
2.02757
2.03497
2.03928
2.04064
2.0392
2.03521
2.02894
2.02071
2.01086
1.99981
1.98795
1.97572
1.96356
1.9519
1.94119
1.93182
1.92419
1.91864
1.91548
1.91495
1.91725
1.92252
1.93083
1.94219
1.95656
1.97384
1.99386
2.01641
2.04128
2.0682
2.09688
2.127
2.1582
2.19012
2.22237
2.25456
2.28627
2.31708
2.34656
2.37428
2.39983
2.42285
2.443
2.46004
2.47376
2.48406
2.49085
2.49405
2.49359
2.48927
2.4808
2.46775
2.44959
2.42573
2.39563
2.35892
2.31551
2.26569
2.21011
2.14982
2.0861
2.02063
1.95461
1.88936
1.82604
1.76564
1.70895
1.6566
1.60902
1.56643
1.52892
1.49645
1.46876
1.44566
1.42689
1.4121
1.40092
1.39299
1.38792
1.38535
1.38494
1.38636
1.38933
1.39357
1.39884
1.40491
1.41159
1.4187
1.42606
1.43353
1.44098
1.44828
1.4553
1.46194
1.4681
1.47369
1.47861
1.48278
1.48613
1.48858
1.49007
1.49053
1.48992
1.48818
1.48526
1.48113
1.47576
1.46911
1.46118
1.45198
1.4415
1.42973
1.41666
1.4023
1.38666
1.36976
1.35163
1.3323
1.31181
1.2902
1.26755
1.24391
1.21936
1.194
1.16791
1.14122
1.11404
1.08651
1.05878
1.03098
1.00328
0.975835
0.948808
0.922347
0.896594
0.871672
0.847682
0.824695
0.802753
0.78186
0.761984
0.743059
0.724984
0.707635
0.69087
0.67454
0.658499
0.642622
0.626811
0.611007
0.595199
0.579422
0.56376
0.548301
0.649733
1.00898
1.21503
1.34663
1.43855
1.50531
1.55525
1.5941
1.62609
1.65435
1.68109
1.70779
1.73526
1.76382
1.79342
1.82373
1.85429
1.88454
1.91392
1.94187
1.96789
1.99154
2.01247
2.03036
2.045
2.05626
2.06404
2.06836
2.06928
2.06693
2.06151
2.05327
2.04253
2.02966
2.01506
1.99919
1.98252
1.96557
1.94883
1.93282
1.91804
1.90496
1.894
1.88555
1.87992
1.87736
1.87806
1.88212
1.88956
1.90037
1.91443
1.9316
1.95167
1.97439
1.99945
2.02654
2.05535
2.08556
2.11684
2.14886
2.18126
2.21367
2.24568
2.27688
2.30681
2.33501
2.36104
2.38448
2.40496
2.42221
2.43607
2.44647
2.4535
2.45727
2.45794
2.45558
2.45012
2.44129
2.42857
2.41123
2.38846
2.35948
2.32378
2.28123
2.23205
2.17762
2.11886
2.05713
1.9938
1.93028
1.86786
1.8077
1.75074
1.69773
1.6492
1.6055
1.56677
1.53301
1.50408
1.47984
1.46002
1.44432
1.43237
1.4238
1.41824
1.41533
1.4147
1.41605
1.41907
1.42348
1.42903
1.43551
1.4427
1.45041
1.45846
1.46671
1.47501
1.48322
1.49122
1.4989
1.50614
1.51285
1.51894
1.5243
1.52886
1.53253
1.53525
1.53695
1.53755
1.53701
1.53528
1.5323
1.52803
1.52243
1.51548
1.50719
1.49755
1.48654
1.47415
1.46037
1.44522
1.42871
1.41085
1.39168
1.37122
1.34952
1.32663
1.30261
1.27753
1.25148
1.22455
1.19684
1.16849
1.13961
1.11035
1.08088
1.05135
1.02194
0.992821
0.96417
0.936154
0.908926
0.882623
0.857351
0.83319
0.810176
0.788311
0.76755
0.747811
0.728975
0.710899
0.69342
0.676375
0.659611
0.642999
0.626449
0.609918
0.593412
0.57699
0.560732
0.639393
0.987077
1.19112
1.3251
1.42172
1.49468
1.55169
1.59789
1.63699
1.67177
1.70423
1.73573
1.7671
1.7987
1.83058
1.86254
1.89419
1.92506
1.95465
1.98245
2.00798
2.0308
2.05056
2.06696
2.07977
2.08884
2.0941
2.09556
2.09329
2.08744
2.07823
2.06596
2.05099
2.03373
2.01467
1.99432
1.97325
1.95203
1.93125
1.91149
1.89332
1.87725
1.86374
1.85318
1.84589
1.84208
1.84188
1.84535
1.85245
1.86307
1.87705
1.89418
1.9142
1.93686
1.96175
1.98855
2.01696
2.0467
2.0775
2.10906
2.14109
2.17327
2.20522
2.23653
2.26674
2.29534
2.32182
2.34566
2.36637
2.38358
2.39706
2.40673
2.41272
2.41534
2.41499
2.41208
2.40693
2.3996
2.3898
2.37688
2.35988
2.33768