/*--------------------------------*- C++ -*----------------------------------*\
  =========                 |
  \\      /  F ield         | OpenFOAM: The Open Source CFD Toolbox
   \\    /   O peration     | Website:  https://openfoam.org
    \\  /    A nd           | Version:  9
     \\/     M anipulation  |
\*---------------------------------------------------------------------------*/
FoamFile
{
    format      ascii;
    class       volScalarField;
    location    "0.23";
    object      nut;
}
// * * * * * * * * * * * * * * * * * * * * * * * * * * * * * * * * * * * * * //

dimensions      [0 2 -1 0 0 0 0];

internalField   nonuniform List<scalar> 
12225
(
3.04426e-05
1.8322e-05
1.18498e-05
8.4391e-06
6.57716e-06
5.47716e-06
4.75973e-06
4.25365e-06
3.88448e-06
3.61597e-06
3.42272e-06
3.28125e-06
3.1704e-06
3.07542e-06
2.99764e-06
3.0082e-06
4.20834e-06
1.67288e-05
0.000163473
0.000102079
8.21938e-05
7.28765e-05
6.73672e-05
6.34008e-05
6.01339e-05
5.73822e-05
5.51552e-05
5.34422e-05
5.21585e-05
5.11704e-05
5.03521e-05
4.96579e-05
4.92564e-05
4.94035e-05
4.70534e-05
5.67773e-05
0.000340414
0.000221274
0.000178998
0.000157254
0.000143554
0.000133716
0.0001261
0.000120181
0.000115805
0.00011279
0.000110812
0.000109444
0.000108283
0.000107066
0.000105586
0.000101887
8.69196e-05
8.91152e-05
0.00050459
0.000350605
0.000285555
0.000249594
0.00022612
0.000209099
0.000196049
0.000186041
0.00017871
0.0001737
0.000170449
0.00016822
0.000166246
0.000163808
0.000159644
0.000148383
0.000120012
0.000114767
0.000629454
0.000472323
0.00039188
0.000343595
0.000310772
0.000286511
0.00026778
0.000253336
0.000242637
0.000235184
0.000230224
0.000226739
0.000223566
0.000219353
0.000211377
0.000191123
0.000149619
0.000136138
0.000714624
0.000576235
0.000490752
0.000434456
0.000394239
0.000363685
0.000339721
0.000321001
0.000306901
0.000296842
0.000289939
0.000284937
0.000280281
0.00027388
0.000261448
0.000232213
0.000179023
0.000155614
0.000769122
0.000658593
0.000577341
0.000518308
0.000473655
0.00043854
0.000410387
0.00038801
0.000370833
0.000358277
0.000349394
0.000342754
0.000336429
0.00032757
0.000310468
0.000273056
0.000209849
0.000175112
0.000802627
0.000720092
0.000649208
0.00059236
0.000546595
0.000509139
0.000478294
0.00045326
0.000433645
0.000418958
0.000408256
0.000399999
0.000391933
0.00038051
0.000358897
0.000314545
0.000243096
0.000196188
0.000822705
0.000763832
0.000706027
0.000655037
0.00061125
0.000573806
0.000542016
0.000515595
0.000494436
0.000478206
0.000466036
0.000456334
0.000446592
0.000432686
0.000407037
0.000357215
0.000279411
0.00022021
0.000834546
0.000793727
0.00074902
0.000705973
0.000666557
0.000631272
0.000600302
0.00057389
0.000552242
0.000535231
0.000522105
0.000511283
0.000500081
0.000483977
0.000455028
0.000401334
0.000319169
0.000248427
0.000841469
0.000813512
0.000780306
0.000745801
0.000712233
0.000680772
0.000652189
0.00062714
0.000606112
0.00058918
0.000575735
0.000564252
0.000551964
0.000534145
0.000502839
0.000446931
0.000362484
0.000281879
0.000845173
0.00082522
0.000800464
0.00077331
0.00074559
0.000718576
0.000693266
0.000670525
0.000651012
0.000634951
0.000621858
0.000610287
0.000597478
0.000578695
0.000546229
0.000489776
0.000404995
0.000317331
0.000847477
0.000833072
0.00081496
0.000794325
0.000772399
0.000750267
0.000728921
0.000709278
0.000692066
0.000677594
0.000665479
0.000654369
0.000641589
0.00062255
0.000590021
0.000534703
0.000451998
0.000360471
0.000849021
0.000838697
0.000826068
0.000811455
0.000795456
0.000778784
0.000762231
0.000746615
0.000732628
0.000720599
0.000710215
0.000700236
0.00068815
0.000669686
0.00063833
0.000585945
0.000507731
0.000415515
0.000849983
0.000842405
0.00083388
0.00082429
0.000813749
0.000802566
0.000791215
0.000780281
0.000770303
0.000761541
0.000753705
0.000745674
0.000735179
0.00071844
0.000689873
0.000642627
0.000571903
0.000483653
0.000850538
0.000844645
0.000838883
0.000833027
0.000826947
0.000820643
0.000814277
0.00080814
0.00080254
0.000797592
0.000792979
0.000787696
0.000779789
0.000766106
0.000742137
0.000702412
0.00064246
0.000563879
0.000850828
0.000845864
0.000841749
0.000838322
0.0008354
0.000832835
0.00083057
0.000828647
0.000827138
0.000825992
0.000824843
0.000822805
0.000818285
0.00080883
0.000791058
0.000760896
0.000714599
0.000651272
0.000850948
0.000846402
0.000843089
0.000840946
0.000839835
0.000839581
0.000840028
0.000841075
0.000842631
0.000844527
0.000846377
0.000847439
0.0008465
0.000841799
0.000831012
0.00081139
0.000780204
0.000735805
0.000850931
0.000846389
0.000843163
0.000841259
0.000840608
0.000841075
0.000842508
0.000844763
0.000847696
0.000851109
0.000854664
0.000857807
0.000859703
0.00085921
0.000854896
0.000845117
0.000828208
0.00080287
0.000850709
0.000845546
0.000841365
0.000838253
0.000836275
0.000835437
0.000835681
0.000836917
0.00083902
0.000841822
0.00084506
0.000848338
0.000851089
0.000852563
0.000851849
0.000847927
0.000839783
0.000826612
0.000850132
0.000843339
0.000836728
0.000830676
0.000825591
0.000821754
0.000819275
0.000818126
0.000818189
0.000819288
0.000821188
0.000823576
0.000826048
0.000828091
0.000829101
0.000828417
0.0008254
0.000819565
0.000848597
0.000837759
0.000825725
0.000813813
0.000803165
0.000794465
0.000787941
0.000783511
0.000780932
0.000779904
0.000780118
0.000781257
0.000782985
0.000784927
0.000786662
0.000787742
0.000787735
0.000786322
0.000844663
0.000824728
0.000802318
0.000780848
0.000762356
0.000747647
0.000736701
0.000729066
0.000724147
0.000721367
0.000720243
0.000720381
0.000721452
0.000723153
0.000725179
0.000727216
0.000728954
0.000730149
0.000835014
0.000796965
0.00075794
0.000724033
0.000697208
0.000677176
0.000662971
0.000653394
0.000647312
0.000643793
0.000642147
0.000641891
0.000642691
0.000644298
0.000646496
0.00064907
0.000651799
0.000654477
0.000812498
0.000743575
0.000683875
0.000638175
0.000605488
0.000583096
0.00056819
0.000558714
0.00055303
0.000549936
0.00054861
0.000548541
0.000549423
0.000551076
0.000553368
0.000556176
0.000559354
0.000562727
0.000763186
0.000652175
0.000575323
0.000524268
0.000491013
0.000470329
0.00045765
0.000450202
0.000446145
0.000444229
0.000443665
0.000444008
0.000445036
0.000446654
0.00044882
0.000451489
0.000454588
0.00045798
0.000664552
0.000515907
0.000436499
0.00039048
0.000363031
0.00034721
0.000338791
0.000334328
0.000332241
0.000331517
0.000331564
0.000332091
0.000332992
0.00033426
0.000335923
0.000338
0.000340474
0.000343252
0.000493526
0.000344468
0.000282766
0.000250687
0.000232948
0.000223572
0.000219326
0.000217384
0.000216626
0.000216451
0.000216554
0.000216816
0.000217228
0.000217836
0.000218696
0.000219851
0.000221314
0.000223035
0.000262048
0.000170708
0.000137771
0.000121443
0.000112791
0.000108481
0.000106567
0.000105694
0.000105198
0.000104906
0.000104729
0.000104635
0.000104631
0.00010474
0.000104992
0.000105408
0.000105997
0.00010674
5.95877e-05
4.25191e-05
3.13906e-05
2.41692e-05
1.95292e-05
1.65815e-05
1.47221e-05
1.35777e-05
1.2857e-05
1.23757e-05
1.20383e-05
1.17971e-05
1.16292e-05
1.15242e-05
1.14766e-05
1.14825e-05
1.15378e-05
1.16362e-05
6.95832e-05
6.12471e-05
6.3542e-05
6.46297e-05
6.48644e-05
6.44627e-05
6.3535e-05
6.21509e-05
6.06092e-05
5.91984e-05
5.7882e-05
5.67548e-05
5.60094e-05
5.58489e-05
5.63323e-05
5.72607e-05
5.81895e-05
5.88334e-05
5.91744e-05
5.95797e-05
6.0798e-05
6.23707e-05
6.41153e-05
6.5935e-05
6.77782e-05
6.96141e-05
7.14231e-05
7.31928e-05
7.49154e-05
7.65863e-05
7.82032e-05
7.97651e-05
8.12721e-05
8.27246e-05
8.41236e-05
8.547e-05
8.67648e-05
8.80088e-05
8.92026e-05
9.03467e-05
9.14415e-05
9.2487e-05
9.34831e-05
9.44298e-05
9.53266e-05
9.61733e-05
9.69696e-05
9.77152e-05
9.84101e-05
9.90549e-05
9.96508e-05
0.0001002
0.000100708
0.000101183
0.000101649
0.000102037
0.000102346
0.000102572
0.000102713
0.000102762
0.000102716
0.000102568
0.000102313
0.000101947
0.000101464
0.00010086
0.000100131
9.92755e-05
9.82907e-05
9.71765e-05
9.59336e-05
9.45645e-05
9.30737e-05
9.14672e-05
8.97534e-05
8.79429e-05
8.60481e-05
8.40842e-05
8.2068e-05
8.00186e-05
7.79564e-05
7.5903e-05
7.38809e-05
7.19122e-05
7.00183e-05
6.82189e-05
6.65317e-05
6.49709e-05
6.35478e-05
6.22696e-05
6.11399e-05
6.01588e-05
5.93231e-05
5.86271e-05
5.80627e-05
5.76206e-05
5.72907e-05
5.70625e-05
5.69265e-05
5.68781e-05
5.69051e-05
5.69739e-05
5.7076e-05
5.72031e-05
5.73475e-05
5.75022e-05
5.76611e-05
5.78187e-05
5.79704e-05
5.81122e-05
5.82407e-05
5.8353e-05
5.84466e-05
5.85195e-05
5.85699e-05
5.85964e-05
5.85978e-05
5.85733e-05
5.85222e-05
5.84441e-05
5.83389e-05
5.82067e-05
5.80481e-05
5.7875e-05
5.76868e-05
5.74768e-05
5.72443e-05
5.699e-05
5.67147e-05
5.64197e-05
5.61062e-05
5.57756e-05
5.54294e-05
5.50692e-05
5.46963e-05
5.43125e-05
5.39191e-05
5.35177e-05
5.31098e-05
5.26967e-05
5.22797e-05
5.18601e-05
5.14389e-05
5.10173e-05
5.05961e-05
5.01762e-05
4.97584e-05
4.93432e-05
4.89312e-05
4.85225e-05
4.81175e-05
4.77183e-05
4.73394e-05
4.70755e-05
4.74835e-05
4.92654e-05
4.84193e-05
4.59374e-05
0.000219619
4.4921e-05
0.000216595
4.40503e-05
0.000213533
4.32175e-05
0.000214509
4.4885e-05
0.000223287
0.000209582
0.000220246
4.39423e-05
0.000207642
0.000205673
0.000199725
4.2615e-05
0.000203614
4.21919e-05
0.000198218
0.000200421
0.000199576
0.000198658
0.000111126
0.00018501
0.000238038
0.000274195
0.000296662
0.000308145
0.000310909
0.000306631
0.00029519
0.000279489
0.000267168
0.000262783
0.000267323
0.000278482
0.000292008
0.000303611
0.000310637
0.000313682
0.000314364
0.000314323
0.000314858
0.000316542
0.00031942
0.000323364
0.000328243
0.000333954
0.000340411
0.000347549
0.000355312
0.000363656
0.000372543
0.00038195
0.00039186
0.00040227
0.000413181
0.000424607
0.000436563
0.00044907
0.000462151
0.000475828
0.000490118
0.000505032
0.000520575
0.000536738
0.000553495
0.000570804
0.000588596
0.000606775
0.000625206
0.000643714
0.000662064
0.000679964
0.000697067
0.0007127
0.00072725
0.00074158
0.000755708
0.000769548
0.000783
0.000795952
0.000808287
0.000819881
0.00083061
0.000840345
0.000848961
0.000856333
0.000862341
0.000866871
0.000869822
0.000871099
0.000870627
0.000868342
0.000864201
0.000858181
0.000850283
0.000840532
0.00082898
0.000815707
0.000800826
0.000784479
0.000766843
0.000748126
0.000728566
0.000708429
0.000688004
0.000667591
0.000647496
0.000628014
0.00060942
0.000591953
0.000575808
0.000561129
0.000548002
0.000536463
0.000526496
0.000518044
0.000511016
0.000505293
0.000500734
0.000497189
0.000494356
0.000492421
0.000491323
0.00049095
0.000491184
0.000491915
0.000493038
0.000494462
0.000496102
0.000497883
0.000499739
0.000501611
0.000503447
0.000505198
0.000506824
0.000508284
0.000509544
0.000510571
0.000511333
0.000511802
0.00051195
0.000511749
0.000511171
0.000510195
0.000508964
0.00050756
0.000505904
0.000503972
0.000501758
0.000499263
0.000496493
0.000493456
0.000490164
0.000486634
0.000482883
0.000478932
0.000474805
0.000470527
0.000466124
0.000461625
0.00045706
0.000452459
0.000447853
0.00044327
0.000438741
0.000434293
0.000429953
0.000425744
0.000421688
0.000417804
0.00041411
0.000410641
0.000407506
0.000405125
0.000404505
0.000398457
0.000392913
0.000390406
0.000424481
0.00038102
0.000415044
0.000371728
0.00040725
0.000363705
0.000401702
0.000358159
0.000418535
0.000389543
0.000410451
0.000344751
0.000375294
0.000365724
0.000351594
0.000315161
0.000363212
0.000309002
0.000352947
0.000374396
0.000383988
0.000386877
0.000139546
0.000246568
0.000334097
0.000398618
0.000442439
0.000468241
0.000478925
0.000477829
0.000465189
0.000448286
0.0004356
0.000432381
0.000438434
0.000450343
0.000463959
0.000476344
0.000486472
0.000494933
0.000503116
0.000512395
0.000523713
0.000537471
0.000553681
0.000572161
0.000592651
0.000614866
0.000638524
0.000663359
0.000689133
0.000715644
0.00074273
0.000770269
0.000798181
0.000826418
0.000854964
0.000883821
0.000913006
0.000942547
0.000972468
0.00100279
0.00103353
0.00106467
0.00109621
0.00112811
0.00116029
0.00119267
0.00122514
0.00125757
0.00128978
0.0013216
0.00135283
0.00138326
0.00141272
0.00144076
0.00146816
0.00149515
0.00152166
0.00154753
0.0015726
0.00159668
0.00161958
0.00164109
0.00166101
0.00167912
0.00169523
0.00170914
0.00172064
0.00172957
0.00173574
0.00173902
0.00173927
0.00173637
0.00173025
0.00172086
0.00170816
0.00169216
0.0016729
0.00165047
0.00162499
0.00159663
0.00156561
0.0015322
0.00149674
0.00145963
0.00142131
0.00138231
0.00134317
0.00130449
0.00126685
0.00123082
0.00119692
0.00116557
0.00113711
0.00111176
0.00108962
0.00107069
0.00105487
0.00104201
0.00103187
0.00102415
0.00101861
0.00101513
0.00101351
0.00101347
0.00101477
0.00101717
0.00102045
0.0010244
0.00102884
0.0010336
0.00103855
0.00104354
0.00104846
0.00105321
0.00105769
0.00106181
0.00106549
0.00106868
0.00107129
0.00107328
0.0010746
0.00107521
0.00107506
0.00107415
0.00107245
0.00107003
0.00106705
0.00106341
0.00105906
0.00105398
0.00104817
0.00104164
0.00103441
0.0010265
0.00101794
0.00100878
0.000999045
0.000988799
0.000978092
0.000966986
0.000955543
0.00094383
0.000931919
0.00091988
0.000907787
0.000895712
0.000883725
0.000871895
0.000860287
0.000848959
0.000837974
0.000827408
0.000817426
0.000808457
0.000801321
0.00079477
0.000784435
0.000772879
0.000772563
0.00075616
0.000754751
0.000738512
0.000737945
0.000721042
0.000722796
0.000707297
0.00071212
0.000696112
0.000694257
0.000672681
0.000666323
0.00065176
0.000634565
0.000618028
0.000615702
0.000596587
0.000591031
0.000587041
0.000580556
0.000572087
0.000165508
0.000305351
0.000420369
0.000503767
0.000559462
0.00059128
0.000603876
0.000601227
0.000589723
0.000577143
0.000569772
0.000570694
0.000579482
0.000593687
0.000610693
0.000628892
0.000647929
0.000668322
0.000690914
0.000716409
0.000745149
0.000777092
0.00081191
0.000849122
0.000888187
0.000928574
0.000969797
0.00101144
0.00105318
0.00109475
0.00113599
0.00117678
0.00121708
0.00125688
0.00129621
0.0013351
0.00137363
0.00141184
0.00144981
0.00148756
0.00152514
0.00156258
0.00159987
0.00163701
0.00167396
0.00171068
0.00174711
0.00178318
0.0018188
0.00185388
0.00188833
0.00192203
0.00195488
0.0019868
0.00201816
0.00204902
0.00207926
0.00210873
0.00213725
0.00216462
0.00219065
0.00221511
0.0022378
0.0022585
0.002277
0.00229309
0.00230656
0.00231723
0.00232493
0.0023295
0.00233079
0.00232869
0.0023231
0.00231395
0.0023012
0.00228484
0.00226487
0.00224134
0.00221433
0.00218397
0.00215042
0.0021139
0.00207467
0.00203309
0.00198956
0.00194458
0.00189872
0.00185263
0.00180699
0.00176253
0.00171995
0.00167992
0.001643
0.00160964
0.00158017
0.00155474
0.0015334
0.00151605
0.00150251
0.00149243
0.00148557
0.00148164
0.00148033
0.00148128
0.00148414
0.00148856
0.00149425
0.00150091
0.00150827
0.00151611
0.0015242
0.00153236
0.00154041
0.00154819
0.00155558
0.00156244
0.00156866
0.00157414
0.0015788
0.00158255
0.00158533
0.00158707
0.00158774
0.00158728
0.00158567
0.0015829
0.00157898
0.00157409
0.00156813
0.00156105
0.00155282
0.00154346
0.00153298
0.0015214
0.00150876
0.00149511
0.00148049
0.00146497
0.00144861
0.00143149
0.0014137
0.00139532
0.00137645
0.00135718
0.00133763
0.0013179
0.0012981
0.00127834
0.00125872
0.00123936
0.00122036
0.00120183
0.00118394
0.00116697
0.0011513
0.00113653
0.00112026
0.00110357
0.0010902
0.00107416
0.00106083
0.00104525
0.00103241
0.00101675
0.001005
0.00098973
0.000977723
0.000961349
0.000948326
0.00093066
0.000913827
0.00089432
0.000873516
0.000853739
0.000835739
0.000815548
0.000795722
0.00077712
0.000757798
0.000737913
0.000190037
0.00035503
0.000491613
0.000592466
0.000660551
0.000700642
0.000717628
0.000718103
0.000710585
0.000702778
0.0007002
0.000705398
0.00071836
0.000737741
0.000762081
0.000790445
0.000822491
0.000858215
0.000897657
0.0009407
0.000986995
0.00103599
0.00108702
0.00113936
0.00119236
0.00124542
0.00129805
0.00134988
0.00140063
0.00145012
0.00149824
0.00154496
0.00159029
0.00163429
0.00167703
0.00171861
0.00175913
0.0017987
0.00183741
0.00187535
0.00191261
0.00194926
0.00198536
0.00202096
0.00205609
0.00209078
0.00212503
0.00215884
0.00219221
0.0022251
0.00225746
0.00228925
0.00232038
0.00235092
0.00238107
0.00241082
0.00244008
0.00246871
0.00249654
0.00252339
0.00254908
0.00257341
0.00259618
0.00261719
0.00263624
0.00265315
0.00266771
0.00267976
0.00268913
0.00269568
0.00269925
0.00269975
0.00269706
0.00269112
0.00268185
0.00266922
0.00265321
0.00263382
0.00261109
0.00258505
0.0025558
0.00252347
0.00248821
0.00245026
0.00240991
0.00236753
0.00232361
0.00227869
0.00223343
0.00218854
0.00214479
0.00210293
0.0020637
0.00202772
0.0019955
0.00196742
0.00194367
0.00192433
0.00190932
0.00189834
0.00189117
0.00188748
0.00188693
0.00188909
0.00189358
0.0019
0.00190797
0.00191715
0.00192721
0.00193786
0.00194883
0.00195989
0.00197081
0.0019814
0.00199149
0.00200092
0.00200956
0.00201727
0.00202396
0.00202951
0.00203385
0.0020369
0.00203859
0.00203888
0.00203771
0.00203507
0.00203091
0.00202528
0.00201832
0.00200995
0.00200011
0.00198881
0.00197604
0.00196183
0.00194622
0.00192923
0.00191093
0.00189136
0.00187061
0.00184875
0.00182586
0.00180204
0.0017774
0.00175204
0.00172608
0.00169967
0.00167292
0.00164598
0.00161899
0.0015921
0.00156545
0.00153918
0.00151348
0.00148854
0.00146456
0.0014414
0.0014182
0.00139532
0.00137374
0.00135217
0.00133144
0.00131073
0.00129069
0.00127042
0.00125105
0.0012309
0.00121111
0.00119028
0.00116998
0.00114804
0.00112508
0.0011005
0.00107481
0.00104902
0.00102298
0.000996352
0.000968808
0.000941147
0.000912859
0.000884172
0.00021123
0.000386914
0.000547541
0.000669422
0.000754024
0.000805506
0.000830726
0.000838472
0.000837605
0.000835953
0.000839135
0.000850079
0.000869485
0.000896791
0.000931033
0.000971298
0.00101682
0.0010669
0.00112083
0.00117784
0.00123713
0.00129784
0.00135919
0.00142044
0.00148098
0.0015403
0.001598
0.0016538
0.00170754
0.00175909
0.00180845
0.00185562
0.00190067
0.00194371
0.00198486
0.00202426
0.00206205
0.00209838
0.0021334
0.00216727
0.00220012
0.00223208
0.00226327
0.00229382
0.00232381
0.00235334
0.00238247
0.00241127
0.00243976
0.00246795
0.00249586
0.00252342
0.0025506
0.00257749
0.00260427
0.00263092
0.00265735
0.00268345
0.00270908
0.00273406
0.00275824
0.00278145
0.00280349
0.00282421
0.00284341
0.00286093
0.00287659
0.00289025
0.00290176
0.00291098
0.00291778
0.00292206
0.00292372
0.00292268
0.00291886
0.0029122
0.00290264
0.00289015
0.00287471
0.00285628
0.00283488
0.00281053
0.00278329
0.00275326
0.00272061
0.00268558
0.00264848
0.00260975
0.00256991
0.00252961
0.00248956
0.00245053
0.0024133
0.0023786
0.00234709
0.00231931
0.00229563
0.00227628
0.00226132
0.00225057
0.00224387
0.00224095
0.00224145
0.00224497
0.0022511
0.00225941
0.00226949
0.00228097
0.00229346
0.00230665
0.00232022
0.00233389
0.00234742
0.00236058
0.00237317
0.00238501
0.00239593
0.0024058
0.00241448
0.00242185
0.00242783
0.00243231
0.00243523
0.00243652
0.00243612
0.002434
0.00243011
0.00242443
0.00241704
0.00240803
0.00239732
0.00238489
0.00237072
0.00235484
0.00233727
0.00231802
0.00229716
0.00227474
0.0022508
0.00222543
0.0021987
0.00217071
0.00214155
0.00211133
0.00208019
0.00204825
0.00201567
0.0019826
0.00194919
0.00191563
0.00188209
0.00184875
0.00181579
0.00178342
0.00175179
0.00172092
0.00169059
0.00166091
0.00163215
0.00160402
0.00157662
0.00154976
0.00152345
0.00149747
0.00147189
0.00144619
0.00142046
0.00139432
0.00136797
0.00134061
0.00131213
0.00128232
0.00125144
0.00121965
0.00118715
0.00115401
0.00111998
0.00108539
0.00105023
0.00101478
0.0002265
0.000400516
0.000589385
0.000735296
0.000837925
0.000903861
0.000941777
0.000960882
0.000970186
0.0009776
0.000989026
0.00100794
0.00103565
0.00107205
0.00111627
0.00116717
0.00122351
0.00128408
0.00134772
0.00141333
0.00147992
0.00154661
0.00161263
0.00167733
0.0017402
0.00180083
0.00185895
0.00191434
0.00196691
0.00201662
0.00206347
0.00210755
0.00214897
0.00218785
0.00222437
0.0022587
0.00229104
0.00232159
0.00235056
0.00237814
0.00240453
0.00242994
0.00245453
0.00247848
0.00250194
0.00252506
0.00254794
0.00257068
0.00259335
0.00261599
0.00263862
0.00266121
0.00268371
0.00270626
0.002729
0.00275193
0.00277499
0.00279807
0.00282105
0.00284379
0.00286613
0.00288793
0.00290903
0.00292928
0.00294852
0.00296661
0.0029834
0.00299877
0.00301259
0.00302475
0.00303514
0.00304368
0.00305026
0.00305482
0.00305727
0.00305754
0.00305555
0.00305122
0.00304447
0.00303521
0.00302338
0.0030089
0.00299172
0.00297182
0.00294924
0.00292407
0.00289648
0.00286676
0.00283531
0.00280263
0.00276934
0.00273617
0.00270387
0.00267322
0.00264495
0.00261972
0.00259803
0.00258028
0.00256667
0.00255713
0.00255162
0.00254995
0.00255182
0.00255687
0.00256469
0.00257485
0.00258695
0.00260056
0.00261531
0.00263083
0.00264678
0.00266287
0.00267882
0.00269437
0.00270931
0.00272344
0.00273656
0.00274852
0.00275919
0.00276842
0.00277611
0.00278216
0.00278648
0.002789
0.00278965
0.00278839
0.00278518
0.00277997
0.00277275
0.00276364
0.00275267
0.00273977
0.00272494
0.00270816
0.00268944
0.00266882
0.00264632
0.00262199
0.00259587
0.00256801
0.0025385
0.00250742
0.00247484
0.00244088
0.00240566
0.0023693
0.00233197
0.00229381
0.002255
0.00221574
0.00217621
0.00213663
0.00209719
0.00205812
0.00201959
0.00198173
0.00194455
0.00190816
0.00187266
0.00183801
0.00180421
0.0017712
0.00173888
0.00170714
0.00167583
0.00164467
0.0016135
0.00158207
0.00155023
0.00151755
0.00148379
0.00144878
0.00141261
0.00137529
0.00133681
0.00129749
0.00125735
0.0012166
0.00117546
0.00113426
0.000217542
0.000372495
0.000605814
0.000783506
0.000908998
0.000993293
0.00104735
0.00108122
0.001104
0.00112349
0.00114565
0.00117425
0.00121099
0.00125601
0.00130849
0.00136713
0.00143049
0.00149712
0.00156571
0.00163511
0.00170433
0.00177254
0.00183905
0.00190334
0.00196496
0.00202362
0.00207909
0.00213124
0.00218001
0.00222541
0.00226749
0.00230635
0.00234214
0.00237503
0.00240524
0.00243298
0.00245849
0.00248202
0.00250383
0.00252417
0.00254329
0.00256145
0.00257886
0.00259574
0.0026123
0.00262871
0.0026451
0.00266161
0.00267832
0.0026953
0.00271256
0.00273011
0.0027479
0.00276603
0.00278467
0.00280382
0.00282344
0.00284343
0.00286368
0.00288407
0.00290447
0.00292474
0.00294474
0.00296436
0.00298346
0.00300193
0.00301965
0.00303652
0.00305246
0.00306739
0.00308121
0.00309388
0.00310533
0.00311548
0.00312427
0.00313162
0.00313744
0.00314162
0.00314404
0.00314456
0.00314303
0.00313929
0.00313317
0.00312455
0.0031133
0.00309939
0.00308285
0.00306381
0.00304251
0.00301933
0.00299478
0.00296949
0.00294415
0.00291954
0.00289641
0.00287548
0.00285737
0.00284258
0.00283145
0.00282405
0.00282045
0.00282058
0.00282421
0.00283104
0.0028407
0.00285279
0.00286689
0.0028826
0.00289951
0.00291725
0.00293547
0.00295386
0.00297211
0.00298995
0.00300715
0.00302349
0.00303877
0.00305283
0.00306549
0.00307663
0.00308612
0.00309386
0.00309974
0.0031037
0.00310565
0.00310554
0.00310333
0.00309897
0.00309243
0.0030837
0.00307294
0.00306009
0.00304514
0.00302805
0.00300883
0.0029875
0.00296406
0.00293855
0.002911
0.00288147
0.00285
0.00281667
0.00278156
0.00274475
0.00270637
0.00266652
0.00262537
0.00258307
0.00253979
0.00249574
0.00245112
0.00240615
0.00236106
0.00231609
0.00227145
0.00222733
0.00218386
0.00214119
0.00209941
0.0020586
0.00201876
0.00197987
0.00194186
0.00190461
0.00186794
0.00183161
0.00179538
0.00175899
0.00172216
0.00168454
0.00164585
0.00160591
0.00156466
0.00152208
0.00147817
0.00143309
0.00138703
0.0013404
0.00129356
0.00124691
0.000227394
0.000388135
0.000634298
0.000828952
0.000972115
0.00107389
0.00114509
0.00119553
0.00123386
0.0012674
0.00130179
0.00134079
0.00138627
0.00143858
0.00149706
0.00156047
0.00162741
0.00169649
0.00176642
0.00183614
0.00190474
0.00197148
0.00203577
0.00209716
0.00215529
0.00220991
0.00226086
0.00230806
0.00235146
0.00239111
0.00242711
0.00245957
0.00248869
0.00251467
0.00253775
0.00255821
0.00257631
0.00259236
0.00260666
0.00261951
0.00263121
0.00264203
0.00265225
0.00266213
0.00267188
0.00268171
0.00269178
0.00270225
0.0027132
0.00272472
0.00273684
0.00274955
0.00276285
0.00277675
0.00279146
0.00280698
0.00282326
0.00284023
0.00285778
0.0028758
0.00289417
0.00291278
0.0029315
0.00295023
0.00296888
0.00298735
0.00300557
0.00302347
0.00304102
0.00305815
0.00307485
0.00309109
0.00310683
0.00312204
0.00313669
0.0031507
0.003164
0.00317646
0.00318794
0.00319825
0.00320716
0.00321444
0.00321982
0.00322301
0.0032238
0.00322196
0.00321739
0.00321006
0.00320007
0.00318765
0.00317318
0.00315719
0.00314029
0.0031232
0.00310669
0.00309149
0.00307828
0.00306764
0.00306004
0.00305566
0.00305472
0.00305725
0.00306312
0.00307209
0.00308385
0.00309804
0.00311425
0.00313211
0.0031512
0.00317116
0.00319162
0.00321226
0.00323277
0.00325287
0.00327231
0.00329085
0.00330829
0.00332445
0.00333916
0.00335227
0.00336366
0.0033732
0.00338079
0.00338636
0.00338982
0.0033911
0.00339015
0.00338693
0.0033814
0.00337353
0.00336333
0.00335092
0.00333626
0.00331931
0.00330006
0.0032785
0.00325464
0.0032285
0.00320009
0.00316946
0.00313666
0.00310172
0.00306473
0.00302577
0.00298493
0.00294234
0.00289813
0.00285245
0.00280548
0.00275743
0.0027085
0.00265893
0.00260897
0.00255887
0.00250887
0.00245921
0.0024101
0.00236172
0.00231422
0.00226774
0.00222232
0.00217798
0.00213469
0.00209233
0.00205073
0.00200967
0.00196886
0.001928
0.00188677
0.00184479
0.00180174
0.00175738
0.00171155
0.00166418
0.00161528
0.00156498
0.0015135
0.00146116
0.00140867
0.00135656
4.20689e-05
0.000298081
0.00061785
0.000854307
0.0010223
0.00114358
0.00123284
0.00130063
0.00135529
0.00140353
0.00145051
0.00149974
0.00155315
0.00161129
0.00167378
0.00173965
0.00180771
0.00187674
0.00194566
0.00201349
0.00207945
0.0021429
0.00220334
0.00226036
0.00231368
0.00236309
0.00240847
0.00244975
0.00248694
0.0025201
0.00254936
0.00257487
0.00259686
0.00261555
0.00263124
0.00264422
0.00265481
0.00266335
0.00267019
0.00267565
0.00268008
0.00268378
0.00268707
0.00269022
0.00269348
0.00269706
0.00270116
0.00270593
0.00271149
0.0027179
0.00272523
0.00273347
0.00274262
0.00275265
0.00276373
0.00277588
0.00278906
0.00280317
0.00281813
0.0028338
0.00285009
0.00286689
0.00288409
0.00290161
0.00291937
0.00293733
0.00295543
0.00297367
0.00299204
0.00301054
0.00302921
0.00304807
0.00306716
0.00308648
0.00310606
0.00312586
0.00314582
0.00316586
0.00318581
0.00320545
0.00322451
0.00324267
0.00325955
0.00327474
0.00328787
0.00329857
0.00330656
0.00331164
0.00331375
0.00331299
0.00330958
0.00330394
0.00329661
0.00328823
0.00327951
0.00327122
0.00326404
0.00325864
0.00325554
0.00325506
0.00325755
0.00326314
0.00327179
0.00328335
0.00329756
0.00331412
0.00333266
0.00335282
0.00337421
0.00339646
0.00341922
0.00344216
0.00346495
0.00348733
0.00350902
0.0035298
0.00354944
0.00356775
0.00358457
0.00359973
0.00361311
0.00362457
0.00363401
0.00364134
0.00364647
0.00364933
0.00364987
0.00364802
0.00364374
0.003637
0.00362776
0.00361609
0.00360204
0.00358556
0.00356661
0.00354519
0.00352129
0.0034949
0.00346606
0.00343477
0.00340107
0.003365
0.00332662
0.00328601
0.00324326
0.00319846
0.00315176
0.0031033
0.00305325
0.00300183
0.00294924
0.00289572
0.00284154
0.00278697
0.00273228
0.00267773
0.00262359
0.00257009
0.00251744
0.00246581
0.00241531
0.00236601
0.00231791
0.00227093
0.00222491
0.00217964
0.00213482
0.00209013
0.00204518
0.00199958
0.00195293
0.00190491
0.00185529
0.00180389
0.00175069
0.00169579
0.00163944
0.00158203
0.00152405
0.00146643
4.24652e-05
0.000292103
0.000622388
0.000877837
0.00106431
0.0012033
0.00130993
0.00139465
0.00146525
0.00152776
0.00158677
0.00164551
0.00170587
0.00176863
0.00183372
0.00190052
0.00196815
0.00203568
0.00210218
0.00216688
0.00222909
0.00228827
0.00234397
0.00239587
0.00244371
0.00248732
0.00252661
0.00256154
0.00259215
0.00261854
0.00264084
0.00265924
0.002674
0.00268538
0.0026937
0.00269929
0.00270252
0.00270376
0.00270337
0.00270174
0.00269922
0.00269617
0.00269291
0.00268974
0.00268693
0.00268472
0.00268331
0.00268286
0.0026835
0.00268532
0.00268835
0.00269263
0.00269812
0.00270477
0.0027127
0.00272191
0.00273234
0.00274389
0.00275645
0.00276989
0.0027841
0.00279897
0.00281442
0.00283037
0.00284676
0.00286358
0.00288082
0.00289851
0.00291671
0.00293549
0.00295494
0.00297516
0.00299627
0.00301837
0.00304153
0.0030658
0.00309119
0.00311763
0.003145
0.00317308
0.00320156
0.00323005
0.00325807
0.00328509
0.00331058
0.00333398
0.00335484
0.00337278
0.00338757
0.00339912
0.00340753
0.00341309
0.00341623
0.00341751
0.00341759
0.00341721
0.00341708
0.00341787
0.00342018
0.00342447
0.00343116
0.0034405
0.00345253
0.00346719
0.0034843
0.00350359
0.00352475
0.00354745
0.00357132
0.00359603
0.00362121
0.00364654
0.00367171
0.00369645
0.00372047
0.00374355
0.00376545
0.003786
0.00380501
0.00382231
0.00383777
0.00385126
0.00386267
0.0038719
0.00387885
0.00388345
0.00388564
0.00388535
0.00388253
0.00387714
0.00386912
0.00385846
0.00384527
0.0038295
0.00381113
0.00379012
0.00376645
0.00374013
0.00371114
0.00367951
0.00364525
0.00360839
0.00356899
0.00352711
0.00348282
0.00343623
0.00338746
0.00333666
0.003284
0.00322967
0.00317391
0.00311695
0.00305907
0.00300055
0.00294169
0.00288279
0.00282415
0.00276604
0.00270873
0.00265244
0.00259733
0.00254353
0.00249108
0.00243995
0.00239002
0.00234108
0.00229287
0.00224501
0.00219712
0.00214872
0.00209938
0.00204868
0.00199626
0.00194186
0.00188536
0.0018268
0.00176638
0.00170454
0.00164183
0.00157894
4.3741e-05
0.000295387
0.000632899
0.000899778
0.00109995
0.00125404
0.0013764
0.00147673
0.00156205
0.0016377
0.0017077
0.00177496
0.00184134
0.00190781
0.00197461
0.00204148
0.00210788
0.00217314
0.00223658
0.00229755
0.00235551
0.00240999
0.00246061
0.00250709
0.00254922
0.00258685
0.00261992
0.00264843
0.00267242
0.00269203
0.00270741
0.0027188
0.00272646
0.0027307
0.00273186
0.00273033
0.00272648
0.00272074
0.00271349
0.00270516
0.00269613
0.00268678
0.00267747
0.00266851
0.0026602
0.00265278
0.00264648
0.00264145
0.00263784
0.00263573
0.00263516
0.00263616
0.0026387
0.00264266
0.00264811
0.00265499
0.00266321
0.00267263
0.00268313
0.00269456
0.00270678
0.00271969
0.00273319
0.00274722
0.00276174
0.00277675
0.0027923
0.00280845
0.00282533
0.00284307
0.00286186
0.00288189
0.00290337
0.00292652