/*--------------------------------*- C++ -*----------------------------------*\
  =========                 |
  \\      /  F ield         | OpenFOAM: The Open Source CFD Toolbox
   \\    /   O peration     | Website:  https://openfoam.org
    \\  /    A nd           | Version:  9
     \\/     M anipulation  |
\*---------------------------------------------------------------------------*/
FoamFile
{
    format      ascii;
    class       volScalarField;
    location    "0.23";
    object      p;
}
// * * * * * * * * * * * * * * * * * * * * * * * * * * * * * * * * * * * * * //

dimensions      [0 2 -2 0 0 0 0];

internalField   nonuniform List<scalar> 
12225
(
1.92472
1.59219
1.49694
1.48686
1.48255
1.48178
1.48596
1.49277
1.50085
1.51004
1.52037
1.53172
1.54379
1.55584
1.56651
1.57157
1.56157
1.46987
1.48037
1.50419
1.4948
1.48982
1.486
1.48537
1.48954
1.49635
1.50444
1.51362
1.52396
1.53538
1.54765
1.56002
1.57125
1.57772
1.57443
1.57562
1.47001
1.51965
1.50161
1.49304
1.48997
1.48998
1.4943
1.50121
1.5094
1.51865
1.52902
1.54054
1.55309
1.56604
1.57844
1.58782
1.59639
1.63985
1.5042
1.52545
1.50272
1.49427
1.49239
1.49328
1.49806
1.50531
1.51377
1.52317
1.53361
1.5452
1.55797
1.57157
1.58553
1.59921
1.61866
1.66816
1.50838
1.51786
1.5001
1.49386
1.49314
1.49499
1.50035
1.50801
1.51678
1.52634
1.5368
1.54837
1.56124
1.57533
1.59069
1.60825
1.635
1.68139
1.50147
1.50867
1.49674
1.49242
1.49266
1.49539
1.50126
1.50925
1.51826
1.52792
1.53833
1.54976
1.56254
1.57682
1.59305
1.61311
1.64352
1.68494
1.49534
1.50125
1.4932
1.4902
1.49118
1.49461
1.50086
1.50904
1.51814
1.52777
1.53799
1.54913
1.56157
1.57563
1.59202
1.61302
1.64394
1.67966
1.4905
1.4948
1.48927
1.48728
1.48882
1.49273
1.49915
1.50731
1.51631
1.52573
1.53559
1.5462
1.558
1.57136
1.58714
1.60758
1.6366
1.66653
1.48574
1.4886
1.48489
1.48372
1.48562
1.48975
1.49612
1.50405
1.51272
1.52169
1.53095
1.54076
1.55155
1.56372
1.5781
1.59669
1.62215
1.64643
1.48067
1.48249
1.48011
1.47954
1.48159
1.48571
1.49179
1.49924
1.5073
1.51556
1.52394
1.53266
1.54206
1.55253
1.5648
1.5805
1.60133
1.62004
1.47524
1.47637
1.4749
1.47474
1.47676
1.48063
1.48619
1.49289
1.50009
1.50735
1.51455
1.52184
1.52948
1.53779
1.54734
1.55934
1.57491
1.58805
1.46995
1.47066
1.46973
1.46977
1.47161
1.47506
1.47993
1.48574
1.4919
1.49798
1.50384
1.50953
1.51524
1.52121
1.52783
1.53597
1.54637
1.55418
1.46443
1.46483
1.46424
1.46434
1.46586
1.46873
1.47274
1.47748
1.4824
1.48709
1.49137
1.49524
1.49881
1.5022
1.50569
1.50981
1.51494
1.51764
1.4577
1.45788
1.45748
1.45748
1.45849
1.46052
1.46336
1.46663
1.46987
1.4727
1.4749
1.47641
1.47725
1.47745
1.47713
1.47657
1.47591
1.473
1.44954
1.44955
1.44915
1.44886
1.44914
1.45002
1.45131
1.4527
1.45377
1.45419
1.45373
1.45228
1.44978
1.44618
1.44148
1.43574
1.42899
1.42003
1.43967
1.43957
1.43897
1.43815
1.43742
1.43682
1.43619
1.43523
1.43364
1.4311
1.42741
1.42242
1.41602
1.40812
1.39862
1.38747
1.37463
1.35946
1.42794
1.42771
1.42672
1.42509
1.42306
1.42065
1.41771
1.41402
1.40931
1.40335
1.39595
1.38697
1.37631
1.36383
1.34943
1.33302
1.31451
1.2936
1.41442
1.41402
1.41245
1.40972
1.40608
1.40155
1.39602
1.3893
1.38119
1.37154
1.3602
1.34706
1.33204
1.31502
1.29592
1.27464
1.25112
1.22519
1.39986
1.39924
1.39687
1.39274
1.38716
1.38023
1.37187
1.36196
1.35039
1.33706
1.32191
1.30486
1.28589
1.26493
1.24196
1.21696
1.18996
1.16094
1.38943
1.38865
1.38551
1.38005
1.37277
1.36385
1.35325
1.34094
1.32688
1.31101
1.29327
1.27363
1.25204
1.22846
1.20286
1.17523
1.1456
1.11394
1.38384
1.38299
1.37918
1.37259
1.36394
1.3535
1.34131
1.32739
1.31176
1.29438
1.2752
1.25415
1.23116
1.20619
1.17918
1.15011
1.11898
1.08576
1.38133
1.38052
1.37599
1.36823
1.35833
1.34659
1.33308
1.31795
1.30123
1.2829
1.26286
1.24102
1.21728
1.19158
1.16384
1.13404
1.10218
1.06825
1.38104
1.38057
1.37525
1.36627
1.35524
1.34239
1.32787
1.31188
1.29451
1.27568
1.25526
1.23311
1.2091
1.18313
1.15513
1.12506
1.09292
1.05872
1.38221
1.38261
1.37631
1.36609
1.35411
1.34036
1.32506
1.30857
1.2909
1.27194
1.25148
1.22936
1.2054
1.17947
1.1515
1.12145
1.08933
1.05518
1.38479
1.38674
1.37872
1.36718
1.35447
1.33995
1.32411
1.3074
1.28976
1.27095
1.25072
1.22886
1.20516
1.17947
1.15172
1.1219
1.09001
1.05611
1.38902
1.39437
1.38262
1.36915
1.35577
1.34058
1.32441
1.30778
1.29044
1.27202
1.25223
1.2308
1.20751
1.1822
1.15481
1.12535
1.09383
1.06036
1.38837
1.40461
1.3878
1.37155
1.35726
1.34148
1.32527
1.30905
1.29231
1.27452
1.25535
1.2345
1.21173
1.18689
1.15996
1.13096
1.09994
1.067
1.35565
1.40363
1.38982
1.37301
1.35783
1.34163
1.3259
1.31058
1.2948
1.2779
1.25954
1.23939
1.21722
1.19293
1.16652
1.13806
1.1076
1.07527
1.33617
1.37824
1.38198
1.37185
1.35693
1.34061
1.32574
1.3119
1.29737
1.28154
1.26406
1.24465
1.22311
1.19938
1.17352
1.14562
1.11578
1.08412
1.77316
1.49019
1.39306
1.37324
1.3571
1.34053
1.32657
1.31374
1.30002
1.28483
1.2679
1.24893
1.22776
1.20437
1.17885
1.1513
1.12187
1.09072
-1.04599
-1.03888
-1.0749
-1.14944
-1.24205
-1.33399
-1.41086
-1.46167
-1.48541
-1.4891
-1.48196
-1.4722
-1.46661
-1.46988
-1.48385
-1.50849
-1.54324
-1.58806
-1.64373
-1.71161
-1.79385
-1.89291
-2.01061
-2.14805
-2.30573
-2.48349
-2.68054
-2.89552
-3.12665
-3.37179
-3.62859
-3.89459
-4.1673
-4.44423
-4.72299
-5.00122
-5.27667
-5.54714
-5.81049
-6.06463
-6.30749
-6.53704
-6.75126
-6.94817
-7.12584
-7.28237
-7.41598
-7.52503
-7.6081
-7.66423
-7.6929
-7.69331
-7.6638
-7.60172
-7.5036
-7.37146
-7.2069
-7.01144
-6.78674
-6.53472
-6.2576
-5.95793
-5.63855
-5.30258
-4.95333
-4.59427
-4.22895
-3.86095
-3.4938
-3.13088
-2.7754
-2.43032
-2.09828
-1.7816
-1.4822
-1.20164
-0.941044
-0.701179
-0.482424
-0.284817
-0.108089
0.0482999
0.185107
0.303269
0.403849
0.488002
0.556927
0.611839
0.653937
0.684379
0.704268
0.714642
0.716464
0.710633
0.69798
0.679277
0.655232
0.626452
0.593487
0.557023
0.517879
0.476421
0.433038
0.388139
0.342123
0.295371
0.248235
0.201041
0.154087
0.10764
0.0619418
0.0172054
-0.0263831
-0.0686629
-0.109498
-0.148774
-0.186401
-0.222308
-0.256445
-0.28878
-0.319299
-0.347998
-0.374855
-0.399876
-0.423034
-0.44437
-0.4639
-0.481636
-0.497587
-0.51176
-0.524163
-0.534805
-0.543692
-0.550833
-0.556233
-0.559902
-0.561848
-0.562086
-0.560634
-0.55752
-0.55278
-0.546458
-0.538607
-0.529284
-0.518552
-0.50647
-0.493101
-0.478502
-0.462732
-0.445843
-0.427877
-0.408843
-0.388628
-0.366055
-0.335943
-0.314156
-0.308109
-0.288117
-0.257059
-0.23143
-0.207101
-0.182805
-0.159146
-0.135449
-0.11009
-0.0871581
-0.0709022
-0.0520684
-0.0308247
-0.0138434
-0.00105025
0.0109897
0.021297
0.0323085
0.0424176
0.0500239
0.0566201
0.0635109
0.0724554
0.0845338
-1.22145
-1.21914
-1.2714
-1.35509
-1.44184
-1.51814
-1.57715
-1.61386
-1.61805
-1.58836
-1.53507
-1.47531
-1.42509
-1.3944
-1.38604
-1.39742
-1.42466
-1.46483
-1.517
-1.58269
-1.66445
-1.7651
-1.88682
-2.03071
-2.19692
-2.38476
-2.59284
-2.81918
-3.06149
-3.31725
-3.58385
-3.85876
-4.13949
-4.42367
-4.70906
-4.9935
-5.27493
-5.55133
-5.82073
-6.08116
-6.33066
-6.56726
-6.78898
-6.99384
-7.17985
-7.34502
-7.48741
-7.60509
-7.69621
-7.75894
-7.79151
-7.79246
-7.76106
-7.6973
-7.60419
-7.48028
-7.32524
-7.13969
-6.92483
-6.68228
-6.41408
-6.12259
-5.81051
-5.48081
-5.1367
-4.78154
-4.4188
-4.05199
-3.6846
-3.32002
-2.96147
-2.61194
-2.27418
-1.95059
-1.64323
-1.3538
-1.08361
-0.833581
-0.604293
-0.395961
-0.208493
-0.0415182
0.105573
0.233586
0.34348
0.436325
0.513264
0.575479
0.624158
0.660468
0.685537
0.700437
0.706179
0.703712
0.693918
0.677618
0.655574
0.628541
0.597296
0.56236
0.5241
0.483175
0.44011
0.395371
0.349389
0.302565
0.255271
0.207846
0.160599
0.113811
0.06773
0.0225779
-0.0214525
-0.0641941
-0.105505
-0.145265
-0.183381
-0.219775
-0.254394
-0.2872
-0.31817
-0.34729
-0.374569
-0.400011
-0.423626
-0.445436
-0.465443
-0.483656
-0.500084
-0.514738
-0.527625
-0.538755
-0.548136
-0.555777
-0.561684
-0.565866
-0.568332
-0.569094
-0.568171
-0.565588
-0.561379
-0.555589
-0.548267
-0.539471
-0.52926
-0.517693
-0.504829
-0.490726
-0.47544
-0.459027
-0.441541
-0.423042
-0.403601
-0.383816
-0.367059
-0.344335
-0.313809
-0.291435
-0.272777
-0.248377
-0.223861
-0.199918
-0.17589
-0.152875
-0.130154
-0.107705
-0.0855939
-0.0656985
-0.0470754
-0.0303806
-0.0154167
-0.00164484
0.0131255
0.0240775
0.0334224
0.0415463
0.0497317
0.0588657
0.0693367
0.0825997
-1.32365
-1.35418
-1.40711
-1.47111
-1.53163
-1.57947
-1.60947
-1.61853
-1.60576
-1.57136
-1.52182
-1.46749
-1.41924
-1.385
-1.36826
-1.36935
-1.38776
-1.42383
-1.47905
-1.55532
-1.65389
-1.77493
-1.91797
-2.08205
-2.26588
-2.46784
-2.68612
-2.91878
-3.16386
-3.41936
-3.68334
-3.95391
-4.2292
-4.5074
-4.78671
-5.06536
-5.34155
-5.6135
-5.87935
-6.13726
-6.38532
-6.62161
-6.84415
-7.05099
-7.24012
-7.40959
-7.55746
-7.68186
-7.781
-7.85312
-7.89643
-7.90928
-7.89055
-7.83995
-7.75801
-7.64454
-7.49967
-7.32402
-7.11862
-6.88495
-6.62488
-6.34064
-6.0348
-5.71021
-5.36999
-5.01739
-4.65585
-4.28881
-3.91974
-3.55202
-3.1889
-2.83342
-2.48839
-2.15631
-1.83937
-1.53939
-1.25784
-0.995821
-0.754083
-0.53303
-0.332753
-0.153061
0.00648436
0.146535
0.267912
0.371574
0.458576
0.530037
0.58711
0.630949
0.662694
0.683445
0.694259
0.696137
0.690027
0.676814
0.657324
0.632361
0.602718
0.569023
0.531799
0.491638
0.449092
0.404666
0.358826
0.312001
0.264586
0.216939
0.169386
0.122219
0.075701
0.0300618
-0.0144962
-0.0577978
-0.0996937
-0.140059
-0.178791
-0.21581
-0.251057
-0.284491
-0.316087
-0.345833
-0.373731
-0.399779
-0.424041
-0.446476
-0.467106
-0.485941
-0.502991
-0.518266
-0.531776
-0.54353
-0.553538
-0.561808
-0.568348
-0.573165
-0.576267
-0.577666
-0.577378
-0.575428
-0.571849
-0.566683
-0.55998
-0.551795
-0.542186
-0.53121
-0.518925
-0.505386
-0.490649
-0.474771
-0.457809
-0.439829
-0.420937
-0.401637
-0.38349
-0.360227
-0.332314
-0.310543
-0.290762
-0.267262
-0.243231
-0.219414
-0.195514
-0.172391
-0.149571
-0.12569
-0.1028
-0.083677
-0.0641122
-0.0456358
-0.0303335
-0.0161718
-0.00173119
0.0115524
0.0227512
0.0325363
0.0421469
0.0522271
0.0637368
0.0780616
-1.26485
-1.32831
-1.3834
-1.43734
-1.48583
-1.52283
-1.5444
-1.54879
-1.53645
-1.51062
-1.47717
-1.44318
-1.41526
-1.39829
-1.39545
-1.4089
-1.44047
-1.49179
-1.56408
-1.65781
-1.77273
-1.90794
-2.06226
-2.23436
-2.42286
-2.62639
-2.84357
-3.07303
-3.31338
-3.56322
-3.82112
-4.08562
-4.35525
-4.62847
-4.90371
-5.17933
-5.45364
-5.7249
-5.99126
-6.25085
-6.50171
-6.74181
-6.96909
-7.18144
-7.37672
-7.55281
-7.70759
-7.83905
-7.94524
-8.02437
-8.07475
-8.09494
-8.08392
-8.04107
-7.96602
-7.85858
-7.7189
-7.54756
-7.34556
-7.11429
-6.85559
-6.57165
-6.26503
-5.93858
-5.59543
-5.23888
-4.8724
-4.49952
-4.12376
-3.74858
-3.37732
-3.01313
-2.65889
-2.31721
-1.99036
-1.68026
-1.38848
-1.1162
-0.86425
-0.633109
-0.422945
-0.233635
-0.0648016
0.0841457
0.213977
0.325603
0.420039
0.498372
0.561733
0.611262
0.648094
0.673338
0.688064
0.693302
0.690034
0.67919
0.661643
0.638228
0.609736
0.576866
0.540247
0.50049
0.458171
0.413823
0.367937
0.320962
0.273311
0.225358
0.177441
0.129863
0.0828952
0.036775
-0.00828874
-0.0521153
-0.0945503
-0.135464
-0.174752
-0.21233
-0.248138
-0.282134
-0.314295
-0.344611
-0.373084
-0.399719
-0.424535
-0.447537
-0.468734
-0.488135
-0.505753
-0.521595
-0.535673
-0.547998
-0.558578
-0.567422
-0.574537
-0.57993
-0.583608
-0.585582
-0.585866
-0.584485
-0.581471
-0.576864
-0.570715
-0.563077
-0.554005
-0.543556
-0.531785
-0.518746
-0.504493
-0.489079
-0.472562
-0.455006
-0.436512
-0.41738
-0.39786
-0.375135
-0.350489
-0.328714
-0.307481
-0.284298
-0.260642
-0.236816
-0.212999
-0.189591
-0.16627
-0.14229
-0.119634
-0.0996905
-0.0795284
-0.0602537
-0.0440078
-0.0288208
-0.0140165
0.000366869
0.0127008
0.0241506
0.0348766
0.0460345
0.0582152
0.0737522
-1.03322
-1.11899
-1.19577
-1.2613
-1.31485
-1.35499
-1.38116
-1.39411
-1.39615
-1.39101
-1.38341
-1.37826
-1.3799
-1.39183
-1.41673
-1.45674
-1.51349
-1.58808
-1.68102
-1.79227
-1.92137
-2.06755
-2.22989
-2.40741
-2.59912
-2.80402
-3.02112
-3.24941
-3.48784
-3.73535
-3.99079
-4.25298
-4.52065
-4.79245
-5.06696
-5.34265
-5.61789
-5.89098
-6.16008
-6.42328
-6.67856
-6.92382
-7.15691
-7.37558
-7.57759
-7.76065
-7.92253
-8.06102
-8.17405
-8.25964
-8.316
-8.3416
-8.33528
-8.29615
-8.22367
-8.11756
-7.97797
-7.80543
-7.60094
-7.36591
-7.10221
-6.81207
-6.49812
-6.16333
-5.81091
-5.44431
-5.06713
-4.68305
-4.29573
-3.90881
-3.52575
-3.14983
-2.78407
-2.43118
-2.09354
-1.77314
-1.47158
-1.1901
-0.929555
-0.690422
-0.472863
-0.276738
-0.101646
0.0530352
0.188107
0.304512
0.403296
0.485573
0.552493
0.605218
0.644892
0.672635
0.689527
0.696608
0.694873
0.685267
0.668691
0.645995
0.617979
0.585379
0.548872
0.509097
0.466652
0.422088
0.375914
0.328595
0.280557
0.232184
0.183824
0.135786
0.0883462
0.0417476
-0.00379782
-0.0481069
-0.0910231
-0.132416
-0.172178
-0.210227
-0.246503
-0.280966
-0.313592
-0.344374
-0.373312
-0.400412
-0.425686
-0.449142
-0.470791
-0.490644
-0.508715
-0.525013
-0.539549
-0.552332
-0.563374
-0.572682
-0.580262
-0.586122
-0.590268
-0.59271
-0.593462
-0.592548
-0.59
-0.585859
-0.580174
-0.572997
-0.564383
-0.554385
-0.543057
-0.53045
-0.516614
-0.501601
-0.485464
-0.468262
-0.450085
-0.431112
-0.411326
-0.38933
-0.366075
-0.344117
-0.322275
-0.299197
-0.275664
-0.251798
-0.227941
-0.204245
-0.180623
-0.156783
-0.134034
-0.113103
-0.0925077
-0.072816
-0.0554297
-0.0391743
-0.0235942
-0.0086107
0.00470446
0.0172856
0.0290975
0.0412267
0.0537954
0.0702753
-0.692017
-0.803542
-0.912694
-1.00283
-1.07227
-1.12498
-1.16463
-1.19445
-1.21814
-1.23978
-1.26332
-1.29213
-1.32886
-1.37557
-1.43391
-1.50519
-1.5904
-1.6902
-1.80488
-1.93442
-2.07855
-2.23678
-2.40857
-2.5933
-2.79035
-2.99907
-3.21881
-3.44886
-3.68849
-3.93687
-4.19313
-4.45629
-4.72525
-4.99882
-5.27569
-5.55441
-5.8334
-6.11097
-6.38527
-6.65433
-6.91608
-7.16831
-7.40875
-7.63504
-7.84475
-8.03546
-8.20476
-8.35028
-8.46977
-8.56109
-8.62227
-8.65165
-8.64788
-8.60994
-8.53711
-8.42907
-8.28593
-8.10823
-7.89698
-7.65364
-7.38014
-7.07885
-6.75252
-6.40426
-6.03748
-5.65581
-5.26307
-4.86313
-4.45988
-4.05715
-3.65861
-3.2677
-2.88761
-2.52118
-2.17088
-1.83879
-1.52656
-1.23546
-0.966308
-0.719586
-0.495402
-0.293554
-0.113569
0.0452557
0.183806
0.30311
0.404295
0.48855
0.557095
0.611147
0.651899
0.680504
0.698071
0.705656
0.704266
0.69486
0.678348
0.65559
0.627396
0.594517
0.557653
0.51746
0.47455
0.429488
0.382793
0.334942
0.286367
0.23746
0.188573
0.14002
0.0920792
0.044994
-0.0010225
-0.0457869
-0.0891434
-0.130962
-0.171137
-0.209589
-0.246259
-0.281108
-0.314115
-0.345275
-0.374587
-0.402059
-0.427702
-0.451523
-0.473532
-0.493744
-0.512172
-0.528831
-0.543731
-0.556881
-0.568292
-0.577971
-0.585927
-0.592164
-0.596689
-0.599512
-0.600648
-0.600121
-0.597965
-0.594219
-0.588933
-0.582157
-0.573946
-0.564349
-0.553419
-0.541202
-0.527747
-0.513101
-0.497314
-0.48044
-0.462558
-0.443773
-0.42402
-0.402606
-0.380171
-0.358153
-0.33602
-0.312973
-0.289439
-0.265551
-0.241569
-0.217651
-0.193757
-0.169877
-0.146858
-0.125149
-0.104016
-0.0838254
-0.0654127
-0.0481625
-0.0317296
-0.0160709
-0.00175501
0.0117629
0.0245942
0.0375974
0.0504938
0.0676986
-0.345639
-0.478689
-0.619473
-0.735365
-0.822341
-0.890485
-0.947501
-0.998079
-1.04639
-1.09641
-1.15142
-1.2137
-1.28468
-1.36524
-1.45601
-1.55753
-1.67023
-1.79447
-1.93046
-2.07827
-2.23784
-2.40901
-2.59157
-2.78527
-2.98981
-3.20488
-3.43009
-3.66501
-3.90912
-4.16184
-4.42244
-4.69011
-4.9639
-5.2427
-5.5253
-5.81029
-6.09612
-6.38109
-6.66333
-6.94082
-7.21139
-7.47274
-7.72246
-7.95804
-8.1769
-8.37643
-8.55404
-8.70715
-8.83333
-8.93026
-8.99578
-9.02806
-9.0256
-8.9872
-8.91205
-8.79975
-8.65035
-8.46441
-8.24298
-7.98761
-7.70033
-7.38365
-7.04052
-6.67424
-6.28847
-5.8871
-5.47418
-5.05389
-4.63037
-4.2077
-3.78981
-3.38037
-2.98275
-2.59994
-2.23456
-1.88877
-1.56427
-1.26234
-0.983804
-0.729079
-0.498206
-0.290892
-0.106555
0.0556243
0.196657
0.317694
0.419986
0.504841
0.573583
0.627525
0.667942
0.696053
0.713015
0.719923
0.717809
0.707648
0.690359
0.66681
0.637813
0.604125
0.566455
0.525467
0.481779
0.43596
0.388536
0.339986
0.290747
0.241211
0.191732
0.142623
0.0941606
0.0465884
0.000116673
-0.0450737
-0.0888294
-0.131024
-0.171555
-0.210346
-0.247342
-0.282507
-0.315824
-0.347286
-0.376897
-0.404664
-0.430598
-0.454708
-0.477004
-0.497499
-0.516209
-0.533151
-0.548337
-0.561778
-0.573483
-0.583461
-0.591717
-0.598259
-0.603092
-0.606228
-0.607683
-0.607481
-0.605658
-0.602254
-0.597317
-0.590898
-0.583048
-0.573817
-0.563252
-0.551399
-0.538301
-0.524003
-0.508551
-0.491995
-0.474402
-0.455837
-0.436239
-0.415281
-0.3934
-0.37143
-0.349164
-0.326145
-0.302612
-0.278688
-0.254586
-0.230453
-0.20631
-0.182269
-0.158894
-0.136501
-0.114778
-0.0939715
-0.0746003
-0.0563632
-0.0390204
-0.0225498
-0.00725461
0.00721056
0.0210041
0.0348286
0.0481259
0.0659146
-0.0849598
-0.205271
-0.3707
-0.507687
-0.608343
-0.690879
-0.765141
-0.836405
-0.908615
-0.985105
-1.06837
-1.15991
-1.26037
-1.36993
-1.48858
-1.61632
-1.75325
-1.89949
-2.05519
-2.22051
-2.39554
-2.58038
-2.77507
-2.97962
-3.19399
-3.41809
-3.65174
-3.8947
-4.14665
-4.40711
-4.67554
-4.95121
-5.23329
-5.52075
-5.81242
-6.10694
-6.40277
-6.69821
-6.99132
-7.28004
-7.56211
-7.83509
-8.09644
-8.34348
-8.57344
-8.78353
-8.97092
-9.13284
-9.26662
-9.36973
-9.43981
-9.47481
-9.4731
-9.4333
-9.35448
-9.23614
-9.07834
-8.8816
-8.64705
-8.37633
-8.07162
-7.73561
-7.37148
-6.98279
-6.57348
-6.14775
-5.70999
-5.26471
-4.81638
-4.3694
-3.92799
-3.49611
-3.07736
-2.67494
-2.29161
-1.92964
-1.59082
-1.27642
-0.987246
-0.72366
-0.485605
-0.272666
-0.0841204
0.0810068
0.223887
0.345836
0.448267
0.532639
0.600424
0.653063
0.691944
0.718382
0.73361
0.73878
0.734965
0.723166
0.704317
0.679292
0.648904
0.613909
0.575015
0.532887
0.488138
0.441337
0.393005
0.343621
0.293618
0.243384
0.19327
0.143585
0.0946019
0.046558
-0.000340248
-0.0459168
-0.0900234
-0.132538
-0.173365
-0.212431
-0.249687
-0.2851
-0.318657
-0.350353
-0.380193
-0.408184
-0.434339
-0.458668
-0.481183
-0.501897
-0.520823
-0.53798
-0.553386
-0.567051
-0.578985
-0.589196
-0.597691
-0.604475
-0.609556
-0.612947
-0.614665
-0.614737
-0.613198
-0.610091
-0.605463
-0.599363
-0.591842
-0.582946
-0.572719
-0.561206
-0.548446
-0.534481
-0.519352
-0.503108
-0.485802
-0.467479
-0.448098
-0.427522
-0.406056
-0.384204
-0.361912
-0.338933
-0.315412
-0.291454
-0.267243
-0.242912
-0.218528
-0.19425
-0.170475
-0.147452
-0.1251
-0.103603
-0.0833036
-0.0640773
-0.0457765
-0.0283933
-0.012092
0.00335766
0.0181094
0.0327553
0.0465434
0.0648086
0.11245
0.00759388
-0.158063
-0.309626
-0.428705
-0.531004
-0.62606
-0.719209
-0.814329
-0.914469
-1.02176
-1.13735
-1.26162
-1.39447
-1.53566
-1.68494
-1.84222
-2.0075
-2.18091
-2.36263
-2.55285
-2.75181
-2.95969
-3.17666
-3.40285
-3.63829
-3.88299
-4.13681
-4.39956
-4.67089
-4.95033
-5.23727
-5.53094
-5.83037
-6.13444
-6.4418
-6.75093
-7.06006
-7.36724
-7.67031
-7.96689
-8.25444
-8.53022
-8.79137
-9.03493
-9.25785
-9.45707
-9.62958
-9.77244
-9.88288
-9.95829
-9.9964
-9.99539
-9.95373
-9.87033
-9.74463
-9.57661
-9.36685
-9.1165
-8.82734
-8.50172
-8.14255
-7.75328
-7.33778
-6.90033
-6.4455
-5.97809
-5.50297
-5.02505
-4.54909
-4.07969
-3.62112
-3.17728
-2.75163
-2.34712
-1.96614
-1.61058
-1.28172
-0.980346
-0.706741
-0.460731
-0.24175
-0.0489002
0.118987
0.263286
0.385519
0.4873
0.570285
0.636125
0.686426
0.722721
0.746447
0.758936
0.761419
0.755024
0.740788
0.719668
0.692546
0.660233
0.62348
0.582992
0.53942
0.49337
0.4454
0.396023
0.345705
0.294871
0.243903
0.19314
0.142884
0.0934005
0.044919
-0.00236152
-0.0482719
-0.092671
-0.135444
-0.1765
-0.215775
-0.253223
-0.288817
-0.322546
-0.354408
-0.384409
-0.41256
-0.438871
-0.463355
-0.486025
-0.506896
-0.525981
-0.543297
-0.558862
-0.572693
-0.584798
-0.595186
-0.603863
-0.610836
-0.616113
-0.619709
-0.621643
-0.621944
-0.620649
-0.617801
-0.613447
-0.607635
-0.600414
-0.591826
-0.581916
-0.570722
-0.558283
-0.544637
-0.529823
-0.513883
-0.496862
-0.478795
-0.459662
-0.439424
-0.418299
-0.396604
-0.374356
-0.351434
-0.327935
-0.303953
-0.279644
-0.255132
-0.230512
-0.205955
-0.181762
-0.158143
-0.135139
-0.112908
-0.0916968
-0.0714797
-0.0521822
-0.0338137
-0.016467
6.28416e-06
0.0157406
0.0312407
0.0455994
0.0642595
0.279267
0.147572
-0.0103467
-0.164941
-0.300283
-0.42213
-0.537339
-0.650575
-0.765595
-0.885364
-1.01191
-1.14636
-1.28907
-1.44
-1.59886
-1.76539
-1.93944
-2.12098
-2.31009
-2.50698
-2.71187
-2.92504
-3.14676
-3.37728
-3.61681
-3.86549
-4.12339
-4.39049
-4.66666
-4.95165
-5.24506
-5.54635
-5.85478
-6.16946
-6.48925
-6.81284
-7.13867
-7.46495
-7.78964
-8.11049
-8.42498
-8.73041
-9.02387
-9.30226
-9.56237
-9.8009
-10.0145
-10.1999
-10.3538
-10.4732
-10.5551
-10.5972
-10.5972
-10.5536
-10.4651
-10.331
-10.1512
-9.92642
-9.6578
-9.34726
-8.99737
-8.61129
-8.19276
-7.74603
-7.27578
-6.78701
-6.28496
-5.77499
-5.26246
-4.75259
-4.25042
-3.76061
-3.28742
-2.8346
-2.40532
-2.00219
-1.62715
-1.28155
-0.966143
-0.681117
-0.426163
-0.200536
-0.00312287
0.16748
0.312896
0.4349
0.535355
0.616153
0.679169
0.726208
0.758977
0.779063
0.787921
0.786875
0.777122
0.759746
0.73573
0.705967
0.671268
0.632374
0.589978
0.544717
0.497178
0.447902
0.397384
0.346075
0.294384
0.242677
0.191282
0.140489
0.0905495
0.0416849
-0.00591624
-0.0520939
-0.0967157
-0.139675
-0.18089
-0.220302
-0.257871
-0.293577
-0.32741
-0.359373
-0.389471
-0.417717
-0.444123
-0.468702
-0.49147
-0.512442
-0.531632
-0.549056
-0.564731
-0.578675
-0.5909
-0.601415
-0.610227
-0.617341
-0.62277
-0.626529
-0.62864
-0.629135
-0.62805
-0.625431
-0.621322
-0.615773
-0.608827
-0.600527
-0.590913
-0.580022
-0.567889
-0.554549
-0.540038
-0.524395
-0.507658
-0.489854
-0.470983
-0.451055
-0.430227
-0.408709
-0.386548
-0.363698
-0.340232
-0.316235
-0.29184
-0.267163
-0.242312
-0.217459
-0.192842
-0.16865
-0.144988
-0.122005
-0.099892
-0.0786859
-0.0583679
-0.0389661
-0.0205429
-0.00301052
0.0137389
0.030149
0.0451269
0.0641349
0.377096
0.213736
0.0469129
-0.1087
-0.249175
-0.380223
-0.506988
-0.633114
-0.761724
-0.895357
-1.03577
-1.18397
-1.34033
-1.50486
-1.67736
-1.85761
-2.04547
-2.24089
-2.44396
-2.65486
-2.87382
-3.10114
-3.3371
-3.58198
-3.83605
-4.09949
-4.37243
-4.6549
-4.94684
-5.24804
-5.55816
-5.8767
-6.20298
-6.5361
-6.87496
-7.21822
-7.56429
-7.91132
-8.25719
-8.5995
-8.93561
-9.26259
-9.57732
-9.87645
-10.1565
-10.4138
-10.6447
-10.8456
-11.0129
-11.1432
-11.2334
-11.2805
-11.2823
-11.237
-11.1431
-10.9997
-10.807
-10.5653
-10.2761
-9.94142
-9.56403
-9.14739
-8.69559
-8.21328
-7.70558
-7.178
-6.63629
-6.08634
-5.53405
-4.98518
-4.44524
-3.9194
-3.41231
-2.92808
-2.47019
-2.04143
-1.6439
-1.27901
-0.947466
-0.649385
-0.384297
-0.151246
0.0511334
0.224526
0.370856
0.492202
0.590726
0.668609
0.727993
0.770926
0.799316
0.814928
0.81936
0.814048
0.800265
0.779149
0.751712
0.718858
0.681394
0.640054
0.595512
0.548383
0.499229
0.448566
0.396864
0.344553
0.292018
0.239608
0.187632
0.136363
0.0860388
0.0368675
-0.010974
-0.0573371
-0.1021
-0.145164
-0.186459
-0.225931
-0.263549
-0.299295
-0.333165
-0.365162
-0.395294
-0.423574
-0.450016
-0.474635
-0.497446
-0.518467
-0.537713
-0.555199
-0.57094
-0.584953
-0.597254
-0.607852
-0.616756
-0.623973
-0.629516
-0.633404
-0.635661
-0.63632
-0.63542
-0.633005
-0.629121
-0.623813
-0.617124
-0.609094
-0.599761
-0.589158
-0.577319
-0.564275
-0.550058
-0.534704
-0.518246
-0.500708
-0.482103
-0.462461
-0.441902
-0.420569
-0.398521
-0.375754
-0.352327
-0.328321
-0.303848
-0.279017
-0.253943
-0.228785
-0.203748
-0.179004
-0.154688
-0.130948
-0.107949
-0.0857637
-0.0644178
-0.0439589
-0.0244426
-0.0058278
0.011957
0.0292338
0.0450684
0.0643018
0.403952
0.178632
0.0152804
-0.128474
-0.264833
-0.396445
-0.527022
-0.659211
-0.795379
-0.937499
-1.08697
-1.24459
-1.41071
-1.58536
-1.76841
-1.9597
-2.15911
-2.36661
-2.58227
-2.80626
-3.0388
-3.28017
-3.53067
-3.79058
-4.06017
-4.33967
-4.62923
-4.92893
-5.23873
-5.55848
-5.88787
-6.22643
-6.57351
-6.92821
-7.28945
-7.65584
-8.02574
-8.39723
-8.76807
-9.13571
-9.49732
-9.84975
-10.1896
-10.5132
-10.8168
-11.0963
-11.3478
-11.5671
-11.7504
-11.8939
-11.9941
-12.0476
-12.0521
-12.0055
-11.9061
-11.753
-11.5461
-11.2861
-10.9742
-10.6129
-10.205
-9.75442
-9.26556
-8.74353
-8.19395
-7.62287
-7.03661
-6.44166
-5.84451
-5.25153
-4.66881
-4.10203
-3.55636
-3.0363
-2.5457
-2.08761
-1.66431
-1.27729
-0.927264
-0.614253
-0.337623
-0.0961815
0.111725
0.28811
0.43525
0.555589
0.651646
0.725944
0.780947
0.818994
0.84223
0.85262
0.85193
0.84172
0.823346
0.798
0.766725
0.730434
0.689928
0.645931
0.599091
0.549993
0.499168
0.4471
0.394229
0.340954
0.287636
0.234597
0.182124
0.130472
0.0798603
0.0304815
-0.0175015
-0.0639524
-0.108761
-0.151841
-0.193128
-0.232578
-0.270167
-0.30588
-0.339717
-0.371681
-0.401785
-0.43004
-0.456462
-0.481067
-0.503872
-0.524894
-0.54415
-0.561655
-0.577424
-0.591469
-0.603807
-0.614452
-0.623413
-0.6307
-0.636327
-0.640316
-0.642695
-0.643496
-0.642761
-0.640533
-0.636857
-0.631776
-0.625331
-0.617559
-0.608496
-0.598171
-0.586616
-0.573858
-0.559929
-0.544857
-0.528673
-0.511399
-0.493057
-0.473684
-0.453372
-0.432224
-0.410301
-0.38762
-0.364236
-0.340221
-0.315674
-0.290695
-0.265398
-0.239935
-0.21448
-0.1892
-0.16424
-0.13975
-0.115883
-0.0927363
-0.0703701
-0.0488515
-0.0282424
-0.00854072
0.0102888
0.0284708
0.0451999
0.0646072
0.312921
0.113955
-0.0496251
-0.191431
-0.322402
-0.450246
-0.580016
-0.713952
-0.853716
-1.00072
-1.156
-1.32014
-1.49343
-1.6759
-1.86748
-2.06806
-2.27755
-2.49594
-2.72331
-2.95981
-3.20565
-3.46109
-3.72644
-4.00197
-4.28798
-4.58469
-4.89229
-5.21088
-5.54045
-5.8809
-6.23193
-6.59311
-6.9638
-7.34311
-7.72992
-8.12283
-8.52012
-8.91976
-9.31937
-9.71623
-10.1073
-10.4891
-10.858
-11.2099
-11.5407
-11.8459
-12.1212
-12.362
-12.5639
-12.7229
-12.8349
-12.8964
-12.9046
-12.8572
-12.7524
-12.5891
-12.3673
-12.0875
-11.7513
-11.3611
-10.9202
-10.4326
-9.90337
-9.33796
-8.74253
-8.12372
-7.48847
-6.8439
-6.19718
-5.55531
-4.92501
-4.31258
-3.72371
-3.16342
-2.63595
-2.14469
-1.69215
-1.27994
-0.908837
-0.578769
-0.288946
-0.037928
0.176259
0.355999
0.503977
0.623059
0.716194
0.786309
0.836247
0.868705
0.886093
0.890613
0.884212
0.868578
0.845159
0.815209
0.779798
0.739841
0.696132
0.649373
0.600178
0.549098
0.496625
0.443205
0.389241
0.335098
0.281103
0.227551
0.174703
0.122791
0.0720153
0.0225503
-0.0254563
-0.0718825
-0.11663
-0.159624
-0.20081
-0.240152
-0.277629
-0.313234
-0.346966
-0.378832
-0.408845
-0.437017
-0.463366
-0.487907
-0.510659
-0.531638
-0.550863
-0.568348
-0.584108
-0.598154
-0.610499
-0.621159
-0.630148
-0.637478
-0.643167
-0.647237
-0.649719
-0.650648
-0.650064
-0.648012
-0.644534
-0.639671
-0.633461
-0.625941
-0.61714
-0.607087
-0.59581
-0.583334
-0.569686
-0.554892
-0.538978
-0.521967
-0.503883
-0.484763
-0.464679
-0.443712
-0.421915
-0.399319
-0.375974
-0.351946
-0.327321
-0.302192
-0.276671
-0.250896
-0.225026
-0.199218
-0.173624
-0.148394
-0.123678
-0.0995926
-0.0762244
-0.0536598
-0.0319746
-0.0112
0.0086634
0.02776
0.045405
0.0649369
0.163459
0.0364131
-0.113401
-0.255462
-0.38559
-0.512882
-0.643058
-0.778627
-0.921161
-1.07189
-1.23169
-1.4011
-1.58037
-1.7696
-1.96875
-2.17778
-2.39666
-2.6254
-2.8641
-3.11291
-3.37205
-3.64177
-3.92238
-4.21416
-4.51741
-4.83239
-5.1593
-5.49828
-5.84935
-6.21244
-6.58728
-6.97347
-7.37036
-7.77708
-8.19248
-8.61509
-9.04312
-9.47441
-9.90642
-10.3362
-10.7604
-11.1754
-11.577
-11.9608
-12.3223
-12.6566
-12.9587
-13.2237
-13.4467
-13.6233
-13.7489
-13.8196
-13.8324
-13.7847
-13.6747
-13.501
-13.2636
-12.9631
-12.6012
-12.1804
-11.7044
-11.1776
-10.6053
-9.99359
-9.34917
-8.67924
-7.99141
-7.29346
-6.59324
-5.89844
-5.21645
-4.55421
-3.91801
-3.31341
-2.74513
-2.21694
-1.73165
-1.29109
-0.896103
-0.546606
-0.241673
0.020377
0.241849
0.425527
0.574553
0.692286
0.782178
0.847656
0.891993
0.918252
0.929184
0.927278
0.914678
0.893207
0.86442
0.829623
0.789907
0.746184
0.699231
0.649716
0.598216
0.545237
0.491227
0.436586
0.381673
0.326813
0.272299
0.218393
0.165329
0.113311
0.0625209
0.0131126
-0.0347822
-0.0810567
-0.125626
-0.168425
-0.209408
-0.248549
-0.28583
-0.321247
-0.354803
-0.386505
-0.416366
-0.4444
-0.470623
-0.495054
-0.517709
-0.538606
-0.557763
-0.575194
-0.590913
-0.604931
-0.617259
-0.627911
-0.636905
-0.644258
-0.649991
-0.654128
-0.656701
-0.657749
-0.65731
-0.655427
-0.652142
-0.647493
-0.641516
-0.634244
-0.625704
-0.615922
-0.604921
-0.592726
-0.579359
-0.564841
-0.549197
-0.532446
-0.514614
-0.495735
-0.475868
-0.455073
-0.4334
-0.410883
-0.387569
-0.363518
-0.338805
-0.313519
-0.287763
-0.261667
-0.235376
-0.209042
-0.182817
-0.156855
-0.131307
-0.106303
-0.081955
-0.0583675
-0.035634
-0.0138156
0.0070527
0.0270464
0.0456119
0.0652201
0.0435368
-0.0587722
-0.190439
-0.32278
-0.448455
-0.573884
-0.703797
-0.840494
-0.985373
-1.13947
-1.30353
-1.47799
-1.66311
-1.85899
-2.06565
-2.28311
-2.51137
-2.75051
-3.00064
-3.26194
-3.53465
-3.81903
-4.11541
-4.42409
-4.74539
-5.07961
-5.42697
-5.78766
-6.16174
-6.54916
-6.94971
-7.36298
-7.78837
-8.22497
-8.67161
-9.12676
-9.58852
-10.0546
-10.5222
-10.9882
-11.4489
-11.9003
-12.3378
-12.7568
-13.1519
-13.518
-13.8494
-14.1409
-14.3871
-14.5828
-14.7233
-14.8043
-14.8224
-14.7749
-14.6597
-14.4755
-14.2221
-13.9002
-13.5116
-13.0591
-12.5467
-11.9791
-11.3621
-10.7022
-10.0067
-9.28344
-8.54064
-7.78677
-7.03037
-6.27982
-5.5432
-4.82807
-4.14136
-3.4892
-2.87679
-2.30838
-1.78713
-1.31514
-0.89344
-0.521996
-0.199815
0.0749786
0.305006
0.493453
0.643974
0.760524
0.847089
0.907621
0.945908
0.965469
0.969491
0.96075
0.94161
0.914053
0.879731
0.839999
0.795956
0.748507
0.698402
0.646267
0.59263
0.537943
0.482599
0.426948
0.3713
0.315936
0.261114
0.207058
0.153972
0.102034
0.0514039
0.00221664
-0.0454142
-0.0913968
-0.135658
-0.178145
-0.218821
-0.257663
-0.29466
-0.32981
-0.363116
-0.394587
-0.424236
-0.452077
-0.478126
-0.502401
-0.524919
-0.545698
-0.564754
-0.582102
-0.597753
-0.611718
-0.624008
-0.634636
-0.64362
-0.650983
-0.656749
-0.660946
-0.663607
-0.664769
-0.664473
-0.662759
-0.659667
-0.655234
-0.649492
-0.64247
-0.634193
-0.624685
-0.613965
-0.602053
-0.588969