/*--------------------------------*- C++ -*----------------------------------*\
  =========                 |
  \\      /  F ield         | OpenFOAM: The Open Source CFD Toolbox
   \\    /   O peration     | Website:  https://openfoam.org
    \\  /    A nd           | Version:  9
     \\/     M anipulation  |
\*---------------------------------------------------------------------------*/
FoamFile
{
    format      ascii;
    class       surfaceScalarField;
    location    "0.23";
    object      phi;
}
// * * * * * * * * * * * * * * * * * * * * * * * * * * * * * * * * * * * * * //

dimensions      [0 3 -1 0 0 0 0];

internalField   nonuniform List<scalar> 
24170
(
3.06757e-07
1.2084e-08
2.65507e-07
4.12497e-08
2.33328e-07
3.21792e-08
2.06807e-07
2.65209e-08
1.84946e-07
2.18609e-08
1.66974e-07
1.79718e-08
1.51395e-07
1.55791e-08
1.37373e-07
1.40216e-08
1.2455e-07
1.28236e-08
1.12644e-07
1.19054e-08
1.01328e-07
1.13166e-08
9.02971e-08
1.10306e-08
7.94667e-08
1.08304e-08
6.92898e-08
1.01769e-08
6.17133e-08
7.57654e-09
6.22625e-08
-5.49201e-10
9.23267e-08
-3.00642e-08
6.01259e-08
3.22008e-08
3.44728e-07
9.08057e-09
3.36269e-07
4.97092e-08
3.2066e-07
4.77878e-08
3.03471e-07
4.37096e-08
2.85767e-07
3.95651e-08
2.67796e-07
3.59432e-08
2.49767e-07
3.36076e-08
2.31843e-07
3.19463e-08
2.1426e-07
3.04061e-08
1.97195e-07
2.89708e-08
1.80638e-07
2.78731e-08
1.64417e-07
2.72519e-08
1.48337e-07
2.69107e-08
1.3256e-07
2.59535e-08
1.18213e-07
2.19232e-08
1.09446e-07
8.2187e-09
1.03246e-07
-2.38651e-08
1.10206e-07
5.31665e-08
3.64342e-07
1.09905e-08
3.65814e-07
4.82374e-08
3.5972e-07
5.38815e-08
3.49613e-07
5.38165e-08
3.36444e-07
5.27345e-08
3.20898e-07
5.14892e-08
3.03655e-07
5.085e-08
2.85288e-07
5.03139e-08
2.66367e-07
4.93262e-08
2.4739e-07
4.79482e-08
2.28635e-07
4.66281e-08
2.10119e-07
4.57678e-08
1.91681e-07
4.53486e-08
1.73242e-07
4.43927e-08
1.5515e-07
4.00152e-08
1.37844e-07
2.55243e-08
1.12184e-07
1.79515e-09
1.43496e-07
7.88942e-08
3.91617e-07
1.1912e-08
3.94054e-07
4.58007e-08
3.91642e-07
5.62938e-08
3.85189e-07
6.02693e-08
3.75127e-07
6.27968e-08
3.61856e-07
6.47604e-08
3.4596e-07
6.67457e-08
3.2807e-07
6.82033e-08
3.0888e-07
6.8517e-08
2.89055e-07
6.77731e-08
2.69074e-07
6.6609e-08
2.49122e-07
6.57194e-08
2.29117e-07
6.53536e-08
2.0885e-07
6.46598e-08
1.88031e-07
6.08343e-08
1.64962e-07
4.85937e-08
1.31695e-07
3.50621e-08
1.68149e-07
1.07042e-07
4.20622e-07
1.20031e-08
4.22998e-07
4.34244e-08
4.22238e-07
5.70541e-08
4.179e-07
6.46071e-08
4.09984e-07
7.07125e-08
3.98585e-07
7.61594e-08
3.84091e-07
8.12393e-08
3.67056e-07
8.52388e-08
3.48158e-07
8.74149e-08
3.28115e-07
8.78161e-08
3.07511e-07
8.72125e-08
2.86658e-07
8.65732e-08
2.65557e-07
8.64545e-08
2.43942e-07
8.62741e-08
2.21113e-07
8.36641e-08
1.94576e-07
7.51304e-08
1.58605e-07
7.10328e-08
1.88974e-07
1.37779e-07
4.51065e-07
1.18464e-08
4.53301e-07
4.11887e-08
4.53356e-07
5.69998e-08
4.50303e-07
6.76598e-08
4.43876e-07
7.71393e-08
4.33959e-07
8.60763e-08
4.20768e-07
9.44308e-08
4.04737e-07
1.01269e-07
3.86467e-07
1.05685e-07
3.66641e-07
1.07642e-07
3.45875e-07
1.07979e-07
3.24554e-07
1.07894e-07
3.02761e-07
1.08247e-07
2.80226e-07
1.08808e-07
2.56056e-07
1.07834e-07
2.27684e-07
1.03502e-07
1.91519e-07
1.07199e-07
2.08218e-07
1.72275e-07
4.83446e-07
1.16726e-08
4.85469e-07
3.91652e-08
4.85877e-07
5.6592e-08
4.83588e-07
6.99493e-08
4.78181e-07
8.25457e-08
4.69417e-07
9.48403e-08
4.57384e-07
1.06464e-07
4.42402e-07
1.16251e-07
4.24965e-07
1.23122e-07
4.05679e-07
1.26928e-07
3.8513e-07
1.28528e-07
3.63737e-07
1.29287e-07
3.41649e-07
1.30336e-07
3.18633e-07
1.31825e-07
2.93774e-07
1.32693e-07
2.64824e-07
1.32452e-07
2.30015e-07
1.42008e-07
2.26877e-07
2.11356e-07
5.18105e-07
1.15255e-08
5.19828e-07
3.74419e-08
5.20308e-07
5.61122e-08
5.18439e-07
7.18186e-08
5.13721e-07
8.7264e-08
5.0585e-07
1.02711e-07
4.94832e-07
1.17483e-07
4.80894e-07
1.30189e-07
4.64424e-07
1.39592e-07
4.45925e-07
1.45427e-07
4.25922e-07
1.48531e-07
4.04834e-07
1.50375e-07
3.82856e-07
1.52314e-07
3.59819e-07
1.54862e-07
3.34914e-07
1.57598e-07
3.06399e-07
1.60967e-07
2.73861e-07
1.74545e-07
2.45199e-07
2.55539e-07
5.55252e-07
1.14074e-08
5.56624e-07
3.60696e-08
5.57008e-07
5.57286e-08
5.55336e-07
7.34905e-08
5.51076e-07
9.15233e-08
5.43907e-07
1.09881e-07
5.33787e-07
1.27603e-07
5.20873e-07
1.43102e-07
5.05462e-07
1.55004e-07
4.87951e-07
1.62937e-07
4.68788e-07
1.67694e-07
4.48365e-07
1.70799e-07
4.26909e-07
1.73769e-07
4.04333e-07
1.77438e-07
3.80008e-07
1.81924e-07
3.52739e-07
1.88236e-07
3.22986e-07
2.04298e-07
2.62967e-07
3.05219e-07
5.95066e-07
1.13191e-08
5.96084e-07
3.50516e-08
5.96282e-07
5.55303e-08
5.94672e-07
7.51007e-08
5.90725e-07
9.547e-08
5.8413e-07
1.16476e-07
5.74826e-07
1.36907e-07
5.62927e-07
1.55002e-07
5.48649e-07
1.69281e-07
5.323e-07
1.79286e-07
5.14242e-07
1.85752e-07
4.9483e-07
1.90211e-07
4.74312e-07
1.94287e-07
4.52686e-07
1.99064e-07
4.29535e-07
2.05075e-07
4.04161e-07
2.1361e-07
3.77514e-07
2.30945e-07
2.79724e-07
3.60757e-07
6.37743e-07
1.12572e-08
6.38436e-07
3.43586e-08
6.38423e-07
5.55439e-08
6.36811e-07
7.67125e-08
6.33102e-07
9.91783e-08
6.27016e-07
1.22563e-07
6.18494e-07
1.45429e-07
6.0762e-07
1.65875e-07
5.94556e-07
1.82345e-07
5.79528e-07
1.94314e-07
5.62823e-07
2.02457e-07
5.44753e-07
2.08281e-07
5.25579e-07
2.13461e-07
5.05383e-07
2.1926e-07
4.83959e-07
2.26499e-07
4.61019e-07
2.3655e-07
4.37722e-07
2.54241e-07
2.94958e-07
4.22488e-07
5.74125e-07
1.12159e-08
5.74498e-07
3.39856e-08
5.74345e-07
5.56964e-08
5.72985e-07
7.80722e-08
5.70031e-07
1.02133e-07
5.65279e-07
1.27315e-07
5.58691e-07
1.52016e-07
5.50329e-07
1.74237e-07
5.40298e-07
1.92376e-07
5.28742e-07
2.0587e-07
5.15853e-07
2.15346e-07
5.01865e-07
2.22269e-07
4.87003e-07
2.28323e-07
4.71394e-07
2.34869e-07
4.5502e-07
2.42873e-07
4.37893e-07
2.53677e-07
4.21026e-07
2.71108e-07
3.06058e-07
4.09926e-07
6.9985e-07
1.11814e-08
7.00121e-07
3.3715e-08
6.99831e-07
5.59858e-08
6.98316e-07
7.95872e-08
6.95181e-07
1.05268e-07
6.90229e-07
1.32266e-07
6.83438e-07
1.58807e-07
6.74874e-07
1.82802e-07
6.64632e-07
2.02618e-07
6.52837e-07
2.17666e-07
6.39663e-07
2.2852e-07
6.25346e-07
2.36586e-07
6.10144e-07
2.43525e-07
5.94263e-07
2.5075e-07
5.77815e-07
2.59322e-07
5.61014e-07
2.70477e-07
5.45059e-07
2.87063e-07
3.1639e-07
5.34726e-07
8.53133e-07
1.11328e-08
8.53338e-07
3.35102e-08
8.5299e-07
5.63343e-08
8.51452e-07
8.11247e-08
8.48342e-07
1.08378e-07
8.43489e-07
1.3712e-07
8.36891e-07
1.65406e-07
8.28625e-07
1.91068e-07
8.18781e-07
2.12462e-07
8.07461e-07
2.28985e-07
7.9482e-07
2.41161e-07
7.81091e-07
2.50315e-07
7.66564e-07
2.58051e-07
7.51524e-07
2.6579e-07
7.36224e-07
2.74622e-07
7.21068e-07
2.85634e-07
7.07313e-07
3.00819e-07
3.24774e-07
6.98929e-07
1.04003e-06
1.1023e-08
1.04031e-06
3.32334e-08
1.04014e-06
5.65051e-08
1.03892e-06
8.23393e-08
1.0363e-06
1.10997e-07
1.03214e-06
1.41283e-07
1.02645e-06
1.71092e-07
1.01933e-06
1.98188e-07
1.01086e-06
2.20934e-07
1.00112e-06
2.38726e-07
9.90246e-07
2.52036e-07
9.78463e-07
2.62098e-07
9.66087e-07
2.70427e-07
9.53474e-07
2.78403e-07
9.40999e-07
2.87096e-07
9.29202e-07
2.97432e-07
9.19292e-07
3.10728e-07
3.29636e-07
9.1443e-07
1.26794e-06
1.07594e-08
1.2686e-06
3.25767e-08
1.26911e-06
5.59921e-08
1.26893e-06
8.25191e-08
1.26772e-06
1.12211e-07
1.26535e-06
1.43656e-07
1.26184e-06
1.74597e-07
1.25728e-06
2.02748e-07
1.25173e-06
2.26486e-07
1.24524e-06
2.45211e-07
1.23794e-06
2.59345e-07
1.23002e-06
2.70015e-07
1.22182e-06
2.78627e-07
1.21374e-06
2.86482e-07
1.20624e-06
2.94595e-07
1.19992e-06
3.0375e-07
1.19587e-06
3.14777e-07
3.29043e-07
1.19647e-06
1.5459e-06
1.01736e-08
1.54749e-06
3.09899e-08
1.5496e-06
5.38863e-08
1.55172e-06
8.03962e-08
1.55352e-06
1.1041e-07
1.55485e-06
1.42331e-07
1.55566e-06
1.73778e-07
1.55598e-06
2.02429e-07
1.5558e-06
2.26668e-07
1.55512e-06
2.45895e-07
1.554e-06
2.60464e-07
1.55263e-06
2.71387e-07
1.55131e-06
2.79938e-07
1.55048e-06
2.8732e-07
1.55059e-06
2.9448e-07
1.55225e-06
3.02093e-07
1.55633e-06
3.10692e-07
3.20893e-07
1.56448e-06
1.88495e-06
8.98591e-09
1.88834e-06
2.76004e-08
1.89349e-06
4.87389e-08
1.89993e-06
7.39518e-08
1.90731e-06
1.03033e-07
1.91536e-06
1.34277e-07
1.9239e-06
1.65239e-07
1.93275e-06
1.93579e-07
1.94174e-06
2.1768e-07
1.95073e-06
2.36904e-07
1.95968e-06
2.51512e-07
1.9687e-06
2.62372e-07
1.97803e-06
2.70608e-07
1.98805e-06
2.77305e-07
1.99919e-06
2.83336e-07
2.01198e-06
2.89305e-07
2.02707e-06
2.956e-07
3.02486e-07
2.04548e-06
2.29856e-06
6.75586e-09
2.30505e-06
2.11183e-08
2.31536e-06
3.84276e-08
2.32906e-06
6.02537e-08
2.34571e-06
8.63805e-08
2.36487e-06
1.15116e-07
2.38606e-06
1.44051e-07
2.40877e-06
1.70868e-07
2.43251e-06
1.93933e-07
2.45689e-06
2.12528e-07
2.48163e-06
2.26773e-07
2.50664e-06
2.3736e-07
2.53201e-06
2.45239e-07
2.55795e-06
2.51363e-07
2.58476e-06
2.56524e-07
2.61278e-06
2.61292e-07
2.64235e-06
2.66021e-07
2.70883e-07
2.67396e-06
1.68322e-06
4.60448e-09
1.68956e-06
1.4778e-08
1.6998e-06
2.81893e-08
1.7136e-06
4.64552e-08
1.73061e-06
6.93702e-08
1.75043e-06
9.52977e-08
1.77258e-06
1.21895e-07
1.79657e-06
1.46877e-07
1.82192e-06
1.68589e-07
1.8482e-06
1.86249e-07
1.87509e-06
1.99876e-07
1.90242e-06
2.10035e-07
1.9301e-06
2.17557e-07
1.95817e-06
2.23299e-07
1.9867e-06
2.27993e-07
2.01581e-06
2.32179e-07
2.04562e-06
2.36209e-07
2.40268e-07
2.07624e-06
1.46562e-06
2.43756e-09
1.47219e-06
8.21245e-09
1.48282e-06
1.75613e-08
1.49711e-06
3.21669e-08
1.51471e-06
5.17642e-08
1.53526e-06
7.47534e-08
1.5583e-06
9.88491e-08
1.5834e-06
1.21783e-07
1.6101e-06
1.41888e-07
1.63801e-06
1.58338e-07
1.66681e-06
1.71078e-07
1.69625e-06
1.80585e-07
1.72621e-06
1.87598e-07
1.75662e-06
1.92889e-07
1.78749e-06
1.97128e-07
1.81885e-06
2.00817e-07
1.85077e-06
2.04289e-07
2.07736e-07
1.8833e-06
1.27601e-06
4.38335e-10
1.28246e-06
1.76433e-09
1.29286e-06
7.16442e-09
1.30668e-06
1.83464e-08
1.32361e-06
3.48297e-08
1.34334e-06
5.50218e-08
1.36552e-06
7.667e-08
1.3898e-06
9.75056e-08
1.41583e-06
1.1586e-07
1.44327e-06
1.30899e-07
1.47181e-06
1.42535e-07
1.50121e-06
1.51191e-07
1.53127e-06
1.57538e-07
1.56187e-06
1.62283e-07
1.59296e-06
1.66035e-07
1.62453e-06
1.6925e-07
1.65659e-06
1.72231e-07
1.75161e-07
1.68916e-06
1.11072e-06
-1.19218e-09
1.11684e-06
-4.35047e-09
1.1266e-06
-2.59528e-09
1.13933e-06
5.61778e-09
1.15479e-06
1.93662e-08
1.17276e-06
3.70519e-08
1.19301e-06
5.64207e-08
1.21533e-06
7.51877e-08
1.23947e-06
9.17143e-08
1.26517e-06
1.05203e-07
1.29213e-06
1.15577e-07
1.32008e-06
1.23235e-07
1.34882e-06
1.28804e-07
1.37816e-06
1.32933e-07
1.40803e-06
1.36174e-07
1.43835e-06
1.38929e-07
1.46912e-06
1.41463e-07
1.43937e-07
1.50034e-06
9.66608e-07
-2.27919e-09
9.72296e-07
-1.00375e-08
9.81174e-07
-1.14739e-08
9.9243e-07
-5.63809e-09
1.00594e-06
5.86028e-09
1.02157e-06
2.14201e-08
1.03926e-06
3.8726e-08
1.05897e-06
5.54757e-08
1.08057e-06
7.01185e-08
1.10382e-06
8.19539e-08
1.12844e-06
9.09533e-08
1.15416e-06
9.75197e-08
1.18072e-06
1.02246e-07
1.20792e-06
1.05726e-07
1.23565e-06
1.08452e-07
1.26381e-06
1.10769e-07
1.29237e-06
1.12898e-07
1.14967e-07
1.32134e-06
8.40916e-07
-2.65946e-09
8.46235e-07
-1.53573e-08
8.54076e-07
-1.93148e-08
8.63585e-07
-1.51468e-08
8.74775e-07
-5.32941e-09
8.87659e-07
8.53543e-09
9.02405e-07
2.39798e-08
9.19157e-07
3.87244e-08
9.37874e-07
5.14009e-08
9.58349e-07
6.14798e-08
9.80283e-07
6.90187e-08
1.00337e-06
7.44368e-08
1.02732e-06
7.82938e-08
1.05192e-06
8.11239e-08
1.07702e-06
8.33495e-08
1.10253e-06
8.52576e-08
1.12841e-06
8.70189e-08
8.87259e-08
1.15465e-06
7.30976e-07
-1.90665e-09
7.363e-07
-2.06818e-08
7.42952e-07
-2.59666e-08
7.50383e-07
-2.25775e-08
7.58847e-07
-1.37939e-08
7.68594e-07
-1.21118e-09
7.8011e-07
1.24639e-08
7.93731e-07
2.51032e-08
8.09472e-07
3.56602e-08
8.27095e-07
4.38566e-08
8.46254e-07
4.98593e-08
8.66591e-07
5.40996e-08
8.87796e-07
5.70897e-08
9.09631e-07
5.92887e-08
9.31939e-07
6.1041e-08
9.5463e-07
6.25673e-08
9.77658e-07
6.39909e-08
6.53693e-08
1.00101e-06
6.34126e-07
9.73491e-10
6.40175e-07
-2.67298e-08
6.453e-07
-3.1092e-08
6.50084e-07
-2.73613e-08
6.55222e-07
-1.89319e-08
6.6139e-07
-7.3797e-09
6.69469e-07
4.38556e-09
6.79947e-07
1.46252e-08
6.92796e-07
2.28111e-08
7.07676e-07
2.89767e-08
7.24151e-07
3.33843e-08
7.41804e-07
3.64458e-08
7.60298e-07
3.8596e-08
7.79389e-07
4.01975e-08
7.98924e-07
4.15061e-08
8.18819e-07
4.26727e-08
8.39035e-07
4.37749e-08
4.48451e-08
8.59559e-07
5.49031e-07
6.48912e-09
5.56079e-07
-3.37781e-08
5.58173e-07
-3.31861e-08
5.58984e-07
-2.81716e-08
5.5979e-07
-1.97379e-08
5.61841e-07
-9.43072e-09
5.66372e-07
-1.46249e-10
5.73866e-07
7.13143e-09
5.8406e-07
1.26174e-08
5.96412e-07
1.66243e-08
6.1037e-07
1.94261e-08
6.25466e-07
2.13506e-08
6.41348e-07
2.27131e-08
6.57786e-07
2.37596e-08
6.74642e-07
2.46504e-08
6.91846e-07
2.54683e-08
7.09375e-07
2.62458e-08
2.70005e-08
7.2722e-07
4.85068e-07
4.18169e-09
4.83792e-07
-3.25017e-08
4.77243e-07
-2.66375e-08
4.6983e-07
-2.07586e-08
4.64162e-07
-1.40701e-08
4.61412e-07
-6.68047e-09
4.62443e-07
-1.17758e-09
4.67292e-07
2.28332e-09
4.75099e-07
4.80994e-09
4.85071e-07
6.65222e-09
4.96561e-07
7.93658e-09
5.09087e-07
8.82429e-09
5.22325e-07
9.4747e-09
5.36079e-07
1.0006e-08
5.50243e-07
1.04867e-08
5.64767e-07
1.09446e-08
5.79638e-07
1.13747e-08
1.17783e-08
5.9486e-07
4.24449e-07
3.91948e-07
3.6531e-07
3.44552e-07
3.30481e-07
3.23801e-07
3.22623e-07
3.24907e-07
3.29717e-07
3.36369e-07
3.44305e-07
3.5313e-07
3.62604e-07
3.7261e-07
3.83097e-07
3.94042e-07
4.05416e-07
4.17195e-07
1.38168e-07
-1.38168e-07
3.35073e-07
-1.96905e-07
5.28073e-07
-1.93e-07
6.95453e-07
-1.67379e-07
8.28596e-07
-1.33143e-07
9.23816e-07
-9.52199e-08
9.79477e-07
-5.56616e-08
9.96031e-07
-1.65533e-08
9.70922e-07
2.51082e-08
9.09802e-07
6.11203e-08
8.23438e-07
8.63638e-08
7.24087e-07
9.93515e-08
6.22599e-07
1.01488e-07
5.25851e-07
9.67475e-08
4.35811e-07
9.00397e-08
3.49887e-07
8.59247e-08
2.62924e-07
8.6963e-08
1.693e-07
9.36236e-08
6.48993e-08
1.04401e-07
-5.21211e-08
1.1702e-07
-1.81874e-07
1.29753e-07
-3.23086e-07
1.41212e-07
-4.73913e-07
1.50827e-07
-6.32379e-07
1.58465e-07
-7.9648e-07
1.64101e-07
-9.64295e-07
1.67815e-07
-1.13406e-06
1.69761e-07
-1.3042e-06
1.70141e-07
-1.47337e-06
1.69178e-07
-1.64047e-06
1.67096e-07
-1.80458e-06
1.64105e-07
-1.96497e-06
1.60391e-07
-2.12107e-06
1.56108e-07
-2.27245e-06
1.5138e-07
-2.41875e-06
1.463e-07
-2.55968e-06
1.40929e-07
-2.69499e-06
1.35308e-07
-2.82445e-06
1.29454e-07
-2.94781e-06
1.23368e-07
-3.06485e-06
1.1704e-07
-3.17531e-06
1.10452e-07
-3.27888e-06
1.03577e-07
-3.37527e-06
9.63913e-08
-3.46414e-06
8.8867e-08
-3.54512e-06
8.09793e-08
-3.61783e-06
7.27076e-08
-3.68186e-06
6.40359e-08
-3.73682e-06
5.49546e-08
-3.78228e-06
4.54634e-08
-3.81785e-06
3.55686e-08
-3.84316e-06
2.53117e-08
-3.85798e-06
1.48217e-08
-3.8621e-06
4.11959e-09
-3.85676e-06
-5.34381e-09
-3.8424e-06
-1.43584e-08
-3.81939e-06
-2.30118e-08
-3.78793e-06
-3.14604e-08
-3.74818e-06
-3.9752e-08
-3.7003e-06
-4.78765e-08
-3.6445e-06
-5.5796e-08
-3.58105e-06
-6.3458e-08
-3.51024e-06
-7.08031e-08
-3.43248e-06
-7.77683e-08
-3.34819e-06
-8.42899e-08
-3.25788e-06
-9.03051e-08
-3.16213e-06
-9.57538e-08
-3.06155e-06
-1.0058e-07
-2.95681e-06
-1.04732e-07
-2.84865e-06
-1.08166e-07
-2.7378e-06
-1.10846e-07
-2.62506e-06
-1.12744e-07
-2.51122e-06
-1.13842e-07
-2.39708e-06
-1.14132e-07
-2.28347e-06
-1.13617e-07
-2.17115e-06
-1.12314e-07
-2.0609e-06
-1.10248e-07
-1.95345e-06
-1.07458e-07
-1.84946e-06
-1.03991e-07
-1.74955e-06
-9.99084e-08
-1.65427e-06
-9.52767e-08
-1.5641e-06
-9.01723e-08
-1.47942e-06
-8.46772e-08
-1.40054e-06
-7.88773e-08
-1.32768e-06
-7.28608e-08
-1.26097e-06
-6.67154e-08
-1.20044e-06
-6.0526e-08
-1.14607e-06
-5.43724e-08
-1.09774e-06
-4.83278e-08
-1.05528e-06
-4.24565e-08
-1.01847e-06
-3.68139e-08
-9.87025e-07
-3.14456e-08
-9.60636e-07
-2.63882e-08
-9.38966e-07
-2.16702e-08
-9.21653e-07
-1.73129e-08
-9.08321e-07
-1.33323e-08
-8.98581e-07
-9.7395e-09
-8.92034e-07
-6.54728e-09
-8.88275e-07
-3.75893e-09
-8.87034e-07
-1.24172e-09
-8.87969e-07
9.35867e-10
-8.90837e-07
2.86784e-09
-8.95432e-07
4.59429e-09
-9.01468e-07
6.0364e-09
-9.08657e-07
7.18877e-09
-9.16724e-07
8.06692e-09
-9.25417e-07
8.69346e-09
-9.3451e-07
9.09332e-09
-9.43802e-07
9.29148e-09
-9.53114e-07
9.31202e-09
-9.62291e-07
9.1775e-09
-9.712e-07
8.90858e-09
-9.79724e-07
8.52398e-09
-9.87764e-07
8.04052e-09
-9.95238e-07
7.47326e-09
-1.00207e-06
6.83564e-09
-1.00821e-06
6.13952e-09
-1.01361e-06
5.39434e-09
-1.01822e-06
4.6095e-09
-1.02201e-06
3.79175e-09
-1.02496e-06
2.94952e-09
-1.02704e-06
2.08495e-09
-1.02825e-06
1.20595e-09
-1.02858e-06
3.30775e-10
-1.02807e-06
-5.09013e-10
-1.02673e-06
-1.34436e-09
-1.02455e-06
-2.17998e-09
-1.02152e-06
-3.02344e-09
-1.01764e-06
-3.87827e-09
-1.0129e-06
-4.74763e-09
-1.00726e-06
-5.63474e-09
-1.00072e-06
-6.54285e-09
-9.93244e-07
-7.47524e-09
-9.84809e-07
-8.43488e-09
-9.75385e-07
-9.42448e-09
-9.64939e-07
-1.04463e-08
-9.53437e-07
-1.15019e-08
-9.40844e-07
-1.25923e-08
-9.27126e-07
-1.37179e-08
-9.12248e-07
-1.48781e-08
-8.96177e-07
-1.60715e-08
-8.78881e-07
-1.72959e-08
-8.60333e-07
-1.85479e-08
-8.40509e-07
-1.98237e-08
-8.19391e-07
-2.11186e-08
-7.96963e-07
-2.24277e-08
-7.73217e-07
-2.37459e-08
-7.48149e-07
-2.50681e-08
-7.2176e-07
-2.63893e-08
-6.94056e-07
-2.77042e-08
-6.6505e-07
-2.90055e-08
-6.34772e-07
-3.02786e-08
-6.03287e-07
-3.14841e-08
-5.70747e-07
-3.2541e-08
-5.3767e-07
-3.30761e-08
-5.018e-07
-3.58708e-08
-4.64704e-07
-3.70955e-08
-4.28255e-07
-3.64491e-08
-3.90039e-07
-3.82164e-08
-3.49321e-07
-4.07174e-08
-3.08462e-07
-4.08595e-08
-2.67105e-07
-4.13568e-08
-2.24395e-07
-4.27102e-08
-1.81352e-07
-4.30428e-08
-1.37122e-07
-4.42297e-08
-9.28606e-08
-4.42615e-08
-4.79898e-08
-4.48708e-08
-2.30822e-09
-4.56816e-08
4.33169e-08
-4.56251e-08
8.75069e-08
-4.419e-08
1.32021e-07
-4.45142e-08
1.76363e-07
-4.43419e-08
2.19193e-07
-4.28304e-08
2.58655e-07
-3.94612e-08
2.95767e-07
-3.71125e-08
3.29379e-07
-3.36122e-08
3.5936e-07
-2.99812e-08
3.84623e-07
-2.52624e-08
4.01801e-07
-1.71778e-08
4.07095e-07
-5.2941e-09
1.14144e-08
3.9568e-07
1.85781e-07
-3.23949e-07
3.3488e-07
-3.46003e-07
4.42791e-07
-3.00911e-07
5.18601e-07
-2.43189e-07
5.67167e-07
-1.81709e-07
5.91509e-07
-1.19562e-07
5.94099e-07
-5.82514e-08
5.75734e-07
1.81185e-09
5.42233e-07
5.86091e-08
4.92346e-07
1.11007e-07
4.24048e-07
1.54662e-07
3.37175e-07
1.86225e-07
2.33055e-07
2.05607e-07
1.13156e-07
2.16647e-07
-2.1846e-08
2.25042e-07
-1.71353e-07
2.35431e-07
-3.34204e-07
2.49814e-07
-5.08109e-07
2.67529e-07
-6.90113e-07
2.86404e-07
-8.77175e-07
3.04082e-07
-1.06641e-06
3.18983e-07
-1.25555e-06
3.30361e-07
-1.44268e-06
3.37954e-07
-1.62604e-06
3.41828e-07
-1.80422e-06
3.42273e-07
-1.97611e-06
3.39712e-07
-2.14099e-06
3.34635e-07
-2.29838e-06
3.27536e-07
-2.44808e-06
3.18877e-07
-2.59005e-06
3.09062e-07
-2.72437e-06
2.98427e-07
-2.85121e-06
2.87236e-07
-2.97079e-06
2.75682e-07
-3.08331e-06
2.63901e-07
-3.18898e-06
2.51971e-07
-3.28799e-06
2.39933e-07
-3.38047e-06
2.27793e-07
-3.46655e-06
2.15535e-07
-3.54631e-06
2.03126e-07
-3.6198e-06
1.90526e-07
-3.68703e-06
1.7769e-07
-3.74803e-06
1.64573e-07
-3.80277e-06
1.51134e-07
-3.85125e-06
1.37341e-07
-3.89343e-06
1.23167e-07
-3.92933e-06
1.08601e-07
-3.95893e-06
9.36422e-08
-3.98228e-06
7.83051e-08
-3.99944e-06
6.26241e-08
-4.01053e-06
4.66555e-08
-4.0157e-06
3.04833e-08
-4.01508e-06
1.42008e-08
-4.00882e-06
-2.14329e-09
-3.99564e-06
-1.85257e-08
-3.97491e-06
-3.50861e-08
-3.94624e-06
-5.16814e-08
-3.9095e-06
-6.82036e-08
-3.86469e-06
-8.45577e-08
-3.81192e-06
-1.00643e-07
-3.75137e-06
-1.16349e-07
-3.68327e-06
-1.31556e-07
-3.60794e-06
-1.46141e-07
-3.52573e-06
-1.59976e-07
-3.43708e-06
-1.72934e-07
-3.3425e-06
-1.84892e-07
-3.24252e-06
-1.9573e-07
-3.13776e-06
-2.05338e-07
-3.02888e-06
-2.13615e-07
-2.91657e-06
-2.20475e-07
-2.80157e-06
-2.25845e-07
-2.68465e-06
-2.2967e-07
-2.56658e-06
-2.31912e-07
-2.44815e-06
-2.32555e-07
-2.33017e-06
-2.31604e-07
-2.2134e-06
-2.29084e-07
-2.0986e-06
-2.25043e-07
-1.98651e-06
-2.19552e-07
-1.8778e-06
-2.12699e-07
-1.77312e-06
-2.04594e-07
-1.67303e-06
-1.95365e-07
-1.57805e-06
-1.85154e-07
-1.48861e-06
-1.74116e-07
-1.40507e-06
-1.62414e-07
-1.32771e-06
-1.5022e-07
-1.25672e-06
-1.37705e-07
-1.19221e-06
-1.25039e-07
-1.1342e-06
-1.12386e-07
-1.08262e-06
-9.98993e-08
-1.03736e-06
-8.77198e-08
-9.98204e-07
-7.59708e-08
-9.64892e-07
-6.47573e-08
-9.37115e-07
-5.41652e-08
-9.14524e-07
-4.42607e-08
-8.96746e-07
-3.50917e-08
-8.83389e-07
-2.66887e-08
-8.74062e-07
-1.90672e-08
-8.68381e-07
-1.22278e-08
-8.65994e-07
-6.1458e-09
-8.66477e-07
-7.59257e-10
-8.69473e-07
3.93235e-09
-8.74541e-07
7.93559e-09
-8.8124e-07
1.12932e-08
-8.89242e-07
1.40385e-08
-8.98264e-07
1.62104e-08
-9.08051e-07
1.78545e-08
-9.18377e-07
1.90195e-08
-9.29038e-07
1.97545e-08
-9.39854e-07
2.01073e-08
-9.50666e-07
2.01234e-08
-9.61333e-07
1.98451e-08
-9.71736e-07
1.93115e-08
-9.8177e-07
1.85583e-08
-9.91348e-07
1.76177e-08
-1.00039e-06
1.6519e-08
-1.00885e-06
1.52884e-08
-1.01666e-06
1.39494e-08
-1.02378e-06
1.25226e-08
-1.0302e-06
1.10263e-08
-1.03589e-06
9.47635e-09
-1.04082e-06
7.88666e-09
-1.04501e-06
6.26846e-09
-1.04843e-06
4.63147e-09
-1.05108e-06
2.98035e-09
-1.05292e-06
1.32612e-09
-1.05391e-06
-3.54464e-10
-1.05404e-06
-2.04248e-09
-1.05332e-06
-3.75048e-09
-1.05171e-06
-5.48318e-09
-1.04921e-06
-7.24646e-09
-1.0458e-06
-9.04664e-09
-1.04145e-06
-1.08903e-08
-1.03615e-06
-1.2784e-08
-1.02985e-06
-1.4734e-08
-1.02252e-06
-1.67459e-08
-1.01415e-06
-1.88245e-08
-1.00467e-06
-2.09736e-08
-9.94071e-07
-2.31957e-08
-9.82298e-07
-2.54917e-08
-9.69315e-07
-2.78611e-08
-9.55084e-07
-3.03017e-08
-9.39571e-07
-3.28095e-08
-9.2274e-07
-3.53788e-08
-9.04561e-07
-3.80023e-08
-8.85008e-07
-4.06714e-08
-8.64059e-07
-4.33767e-08
-8.41697e-07
-4.61083e-08
-8.17909e-07
-4.88557e-08
-7.9269e-07
-5.16088e-08
-7.66037e-07
-5.4357e-08
-7.37954e-07
-5.70888e-08
-7.08443e-07
-5.97895e-08
-6.77491e-07
-6.24355e-08
-6.45043e-07
-6.49896e-08
-6.10598e-07
-6.75214e-08
-5.75192e-07
-7.12759e-08
-5.38828e-07
-7.34601e-08
-5.0108e-07
-7.41971e-08
-4.62168e-07
-7.71283e-08
-4.22295e-07
-8.05899e-08
-3.81024e-07
-8.21311e-08
-3.38273e-07
-8.41081e-08
-2.94989e-07
-8.59942e-08
-2.50281e-07
-8.77499e-08
-2.04988e-07
-8.95231e-08
-1.58425e-07
-9.08242e-08
-1.11709e-07
-9.15874e-08
-6.50987e-08
-9.22916e-08
-1.78597e-08
-9.28641e-08
2.99296e-08
-9.19794e-08
7.61404e-08
-9.0725e-08
1.21494e-07
-8.96957e-08
1.65908e-07
-8.72445e-08
2.09703e-07
-8.32557e-08
2.50638e-07
-7.8048e-08
2.88816e-07
-7.17894e-08
3.22827e-07
-6.39925e-08
3.52149e-07
-5.45846e-08
3.75917e-07
-4.09461e-08
3.92165e-07
-2.15416e-08
2.83e-09
4.00749e-07
1.12213e-07
-4.36162e-07
1.71653e-07
-4.05444e-07
2.01998e-07
-3.31256e-07
2.11209e-07
-2.52401e-07
2.0327e-07
-1.7377e-07
1.80302e-07
-9.65944e-08
1.43567e-07
-2.15162e-08
9.4477e-08
5.09016e-08
3.34042e-08
1.19682e-07
-3.85088e-08
1.8292e-07
-1.21785e-07
2.37938e-07
-2.18448e-07
2.82888e-07
-3.31167e-07
3.18327e-07
-4.61568e-07
3.47047e-07
-6.0893e-07
3.72404e-07
-7.70074e-07
3.96575e-07
-9.40175e-07
4.19915e-07
-1.11409e-06
4.41441e-07
-1.28744e-06
4.59754e-07
-1.45712e-06
4.73766e-07
-1.62113e-06
4.82995e-07
-1.77825e-06
4.87483e-07
-1.92789e-06
4.87592e-07
-2.06993e-06
4.83865e-07
-2.20458e-06
4.76926e-07
-2.33228e-06
4.67411e-07
-2.45356e-06
4.55919e-07
-2.569e-06
4.42976e-07
-2.67914e-06
4.29018e-07
-2.78447e-06
4.14391e-07
-2.8854e-06
3.99351e-07
-2.98224e-06
3.84075e-07
-3.07523e-06
3.68671e-07
-3.16452e-06
3.53193e-07
-3.25019e-06
3.37649e-07
-3.33228e-06
3.22017e-07
-3.41074e-06
3.0625e-07
-3.48549e-06
2.90286e-07
-3.55642e-06
2.74057e-07
-3.62338e-06
2.57487e-07
-3.68619e-06
2.40506e-07
-3.74467e-06
2.23048e-07
-3.79859e-06
2.05052e-07
-3.84772e-06
1.8647e-07
-3.89182e-06
1.67267e-07
-3.93063e-06
1.47419e-07
-3.96391e-06
1.26919e-07
-3.99138e-06
1.05775e-07
-4.01277e-06
8.40103e-08
-4.02777e-06
6.16643e-08
-4.03608e-06
3.87879e-08
-4.03731e-06
1.54348e-08
-4.03111e-06
-8.34621e-09
-4.01712e-06
-3.25166e-08
-3.99523e-06
-5.69785e-08
-3.96533e-06
-8.1582e-08
-3.92737e-06
-1.06164e-07
-3.88136e-06
-1.3056e-07
-3.82741e-06
-1.54597e-07
-3.76566e-06
-1.78096e-07
-3.69635e-06
-2.00869e-07
-3.61976e-06
-2.22726e-07
-3.53627e-06
-2.43472e-07
-3.44628e-06
-2.62918e-07
-3.3503e-06
-2.80875e-07
-3.24886e-06
-2.97166e-07
-3.14258e-06
-3.11626e-07
-3.03209e-06
-3.24103e-07
-2.9181e-06
-3.34467e-07
-2.80133e-06
-3.42609e-07
-2.68256e-06
-3.48446e-07
-2.56255e-06
-3.51922e-07
-2.44209e-06
-3.53009e-07
-2.32198e-06
-3.51712e-07
-2.203e-06
-3.48067e-07
-2.0859e-06
-3.42143e-07
-1.97142e-06
-3.34038e-07
-1.86023e-06
-3.23881e-07
-1.753e-06
-3.11831e-07
-1.65029e-06
-2.98071e-07
-1.55264e-06
-2.82806e-07
-1.46049e-06
-2.6626e-07
-1.37424e-06
-2.48672e-07
-1.29417e-06
-2.30289e-07
-1.22051e-06
-2.11363e-07
-1.1534e-06
-1.92145e-07
-1.09291e-06
-1.72881e-07
-1.039e-06
-1.53804e-07
-9.91592e-07
-1.35131e-07
-9.50505e-07
-1.17057e-07
-9.1551e-07
-9.97526e-08
-8.86315e-07
-8.33607e-08
-8.6258e-07
-6.79948e-08
-8.43933e-07
-5.37392e-08
-8.29972e-07
-4.06497e-08
-8.20283e-07
-2.87559e-08
-8.14449e-07
-1.80622e-08
-8.12047e-07
-8.54774e-09
-8.12632e-07
-1.73986e-10
-8.15787e-07
7.08768e-09
-8.21126e-07
1.32738e-08
-8.28276e-07
1.84435e-08
-8.36903e-07
2.26659e-08
-8.46707e-07
2.60141e-08
-8.57416e-07
2.85634e-08
-8.68786e-07
3.03899e-08
-8.806e-07
3.15683e-08
-8.92664e-07
3.21708e-08
-9.04805e-07
3.22653e-08
-9.16876e-07
3.19153e-08
-9.28743e-07
3.11793e-08
-9.40296e-07
3.0111e-08
-9.51437e-07
2.87591e-08
-9.62086e-07
2.71678e-08
-9.72175e-07
2.53768e-08
-9.81647e-07
2.34215e-08
-9.90457e-07
2.13332e-08
-9.9857e-07
1.9139e-08
-1.00596e-06
1.68622e-08
-1.01259e-06
1.45221e-08
-1.01846e-06
1.21343e-08
-1.02354e-06
9.70982e-09
-1.02781e-06
7.25559e-09
-1.03126e-06
4.77672e-09
-1.03389e-06
2.26943e-09
-1.03566e-06
-2.63993e-10
-1.03659e-06
-2.82638e-09
-1.03665e-06
-5.42496e-09
-1.03582e-06
-8.06771e-09
-1.03411e-06
-1.07637e-08
-1.03148e-06
-1.35224e-08
-1.02791e-06
-1.63536e-08
-1.02337e-06
-1.92667e-08
-1.01785e-06
-2.22705e-08
-1.0113e-06
-2.53726e-08
-1.00369e-06
-2.85793e-08
-9.94995e-07
-3.18951e-08
-9.85165e-07
-3.53225e-08
-9.74164e-07
-3.8862e-08
-9.61954e-07
-4.25114e-08
-9.48497e-07
-4.62663e-08
-9.33756e-07
-5.01199e-08
-9.17696e-07
-5.40629e-08
-9.00283e-07
-5.80843e-08
-8.81488e-07
-6.21714e-08
-8.61286e-07
-6.63102e-08
-8.39655e-07
-7.04863e-08
-8.1658e-07
-7.46847e-08
-7.92046e-07
-7.88904e-08
-7.66047e-07
-8.30882e-08
-7.38573e-07
-8.72628e-08
-7.0961e-07
-9.13995e-08
-6.79103e-07
-9.54966e-08
-6.46952e-07
-9.96715e-08
-6.13985e-07
-1.04243e-07
-5.79619e-07
-1.07827e-07
-5.43087e-07
-1.10729e-07
-5.05506e-07
-1.14709e-07
-4.67215e-07
-1.18881e-07
-4.27343e-07
-1.22004e-07
-3.86232e-07
-1.25219e-07
-3.44076e-07
-1.2815e-07
-3.00801e-07
-1.31025e-07
-2.56683e-07
-1.33641e-07
-2.11701e-07
-1.35807e-07
-1.65998e-07
-1.3729e-07
-1.19788e-07
-1.38502e-07
-7.33504e-08
-1.39301e-07
-2.65567e-08
-1.38773e-07
1.9858e-08
-1.3714e-07
6.53626e-08
-1.352e-07
1.09946e-07
-1.31828e-07
1.53534e-07
-1.26844e-07
1.95324e-07
-1.19837e-07
2.34797e-07
-1.11262e-07
2.71014e-07
-1.0021e-07
3.03248e-07
-8.6819e-08
3.3129e-07
-6.89875e-08
3.54472e-07
-4.47243e-08
-1.55703e-08
3.72873e-07
1.50815e-08
-4.51244e-07
-1.21417e-09
-3.89148e-07
-3.10361e-08
-3.01434e-07
-7.15807e-08
-2.11856e-07
-1.21486e-07
-1.23864e-07
-1.80161e-07
-3.79196e-08
-2.47368e-07
4.56909e-08
-3.22815e-07
1.26348e-07
-4.05973e-07
2.0284e-07
-4.96495e-07
2.73441e-07
-5.94963e-07
3.36406e-07
-7.02895e-07
3.90821e-07
-8.21669e-07
4.371e-07
-9.51186e-07
4.76564e-07
-1.08931e-06
5.10526e-07
-1.23237e-06
5.39634e-07
-1.37628e-06
5.63832e-07
-1.51758e-06
5.82734e-07
-1.65388e-06
5.96058e-07
-1.78397e-06
6.03853e-07
-1.90748e-06
6.06509e-07
-2.02464e-06
6.04644e-07
-2.13602e-06
5.98973e-07
-2.24238e-06
5.90218e-07
-2.3445e-06
5.79051e-07
-2.44315e-06
5.66058e-07
-2.53896e-06
5.51732e-07
-2.63245e-06
5.36466e-07
-2.72399e-06
5.20557e-07
-2.81382e-06
5.04219e-07
-2.90206e-06
4.87592e-07
-2.98874e-06
4.70753e-07
-3.0738e-06
4.5373e-07
-3.15712e-06
4.36511e-07
-3.23852e-06
4.19055e-07
-3.3178e-06
4.01297e-07
-3.39471e-06
3.8316e-07
-3.46898e-06
3.64556e-07
-3.54032e-06
3.45395e-07
-3.60842e-06
3.25584e-07
-3.67295e-06
3.05039e-07
-3.73358e-06
2.83679e-07
-3.78996e-06
2.61434e-07
-3.84174e-06
2.38247e-07
-3.88855e-06
2.14076e-07
-3.93002e-06
1.88892e-07
-3.96579e-06
1.62686e-07
-3.99548e-06
1.35466e-07
-4.01873e-06
1.0726e-07
-4.03518e-06
7.81141e-08
-4.04448e-06
4.80926e-08
-4.04633e-06
1.72761e-08
-4.04043e-06
-1.42424e-08
-4.0266e-06
-4.6347e-08
-4.0047e-06
-7.88792e-08
-3.97464e-06
-1.11646e-07
-3.93637e-06
-1.44434e-07
-3.88991e-06
-1.77019e-07
-3.83534e-06
-2.09163e-07
-3.77282e-06
-2.40619e-07
-3.70256e-06
-2.71131e-07
-3.62484e-06
-3.00438e-07
-3.54004e-06
-3.28277e-07
-3.44857e-06
-3.5439e-07
-3.35092e-06
-3.78523e-07
-3.24765e-06
-4.00436e-07
-3.13937e-06
-4.19906e-07
-3.02674e-06
-4.3673e-07
-2.91048e-06
-4.50732e-07
-2.79132e-06
-4.61763e-07
-2.67006e-06
-4.69712e-07
-2.54748e-06
-4.74501e-07
-2.42439e-06
-4.76094e-07
-2.30161e-06
-4.74494e-07
-2.17993e-06
-4.69749e-07
-2.06012e-06
-4.61947e-07
-1.94294e-06
-4.51218e-07
-1.82909e-06
-4.37733e-07
-1.71922e-06
-4.21699e-07
-1.61394e-06
-4.03355e-07
-1.51377e-06
-3.82974e-07
-1.41919e-06
-3.60848e-07
-1.33057e-06
-3.3729e-07
-1.24823e-06
-3.12626e-07
-1.17241e-06
-2.87187e-07
-1.10325e-06
-2.61306e-07
-1.04082e-06
-2.35307e-07
-9.8512e-07
-2.09503e-07
-9.36068e-07
-1.84184e-07
-8.93506e-07
-1.59618e-07
-8.57217e-07
-1.36042e-07
-8.2692e-07
-1.13658e-07
-8.02285e-07
-9.26296e-08
-7.8294e-07
-7.30836e-08
-7.68483e-07
-5.51072e-08
-7.58488e-07
-3.8751e-08
-7.52519e-07
-2.40315e-08
-7.50132e-07
-1.09339e-08
-7.50885e-07
5.78158e-10
-7.54351e-07
1.0554e-08
-7.60136e-07
1.90589e-08
-7.67869e-07
2.61766e-08
-7.77206e-07
3.20029e-08
-7.87832e-07
3.66398e-08
-7.9946e-07
4.01917e-08
-8.11833e-07
4.27629e-08
-8.2472e-07
4.44551e-08
-8.37915e-07
4.53659e-08
-8.51237e-07
4.55872e-08
-8.64527e-07
4.5205e-08
-8.77646e-07
4.42987e-08
-8.90476e-07
4.29409e-08
-9.02915e-07
4.11977e-08
-9.14876e-07
3.91292e-08
-9.26288e-07
3.67891e-08
-9.37092e-07
3.42252e-08
-9.47239e-07
3.14797e-08
-9.56688e-07
2.85889e-08
-9.6541e-07
2.55839e-08
-9.73378e-07