/*--------------------------------*- C++ -*----------------------------------*\
  =========                 |
  \\      /  F ield         | OpenFOAM: The Open Source CFD Toolbox
   \\    /   O peration     | Website:  https://openfoam.org
    \\  /    A nd           | Version:  9
     \\/     M anipulation  |
\*---------------------------------------------------------------------------*/
FoamFile
{
    format      ascii;
    class       volVectorField;
    location    "0.23";
    object      U;
}
// * * * * * * * * * * * * * * * * * * * * * * * * * * * * * * * * * * * * * //

dimensions      [0 1 -1 0 0 0 0];

internalField   nonuniform List<vector> 
12225
(
(0.938039 -0.293562 0)
(0.900129 -0.0750642 0)
(0.796422 0.00179413 0)
(0.689077 0.0132306 0)
(0.610277 0.0112668 0)
(0.550357 0.00878538 0)
(0.498718 0.00741975 0)
(0.452255 0.00666051 0)
(0.410204 0.00614109 0)
(0.371669 0.00581366 0)
(0.33557 0.0057211 0)
(0.30078 0.00584294 0)
(0.266626 0.0060031 0)
(0.2331 0.00579913 0)
(0.204403 0.00402818 0)
(0.187733 -0.00194062 0)
(0.232515 -0.0304071 0)
(0.217636 0.121213 0)
(1.0228 0.0840705 0)
(1.00059 0.0692479 0)
(0.963836 0.0368082 0)
(0.914312 0.0280088 0)
(0.862483 0.0250168 0)
(0.810678 0.0227326 0)
(0.758021 0.0212897 0)
(0.70507 0.0204221 0)
(0.652857 0.0197773 0)
(0.602079 0.019332 0)
(0.552976 0.0192367 0)
(0.505209 0.0195684 0)
(0.458169 0.0201247 0)
(0.411247 0.0200604 0)
(0.366571 0.0168803 0)
(0.327525 0.00270189 0)
(0.307667 -0.0370437 0)
(0.239918 0.11271 0)
(0.998771 0.019151 0)
(0.998175 0.0343089 0)
(0.993652 0.0353346 0)
(0.971403 0.0356057 0)
(0.938602 0.0351417 0)
(0.899214 0.0345841 0)
(0.854192 0.0346659 0)
(0.805119 0.0350371 0)
(0.753793 0.0352543 0)
(0.701767 0.0353248 0)
(0.650161 0.0355636 0)
(0.599364 0.0362639 0)
(0.549132 0.0373646 0)
(0.498763 0.0378709 0)
(0.448788 0.034599 0)
(0.398896 0.019051 0)
(0.345903 -0.0141547 0)
(0.246985 0.155777 0)
(0.998122 0.00549962 0)
(1.0005 0.0287756 0)
(1.00363 0.037449 0)
(0.992468 0.0410783 0)
(0.970788 0.0433991 0)
(0.940956 0.0454672 0)
(0.903569 0.0478507 0)
(0.860098 0.0501493 0)
(0.812405 0.051844 0)
(0.762324 0.0529333 0)
(0.711407 0.0538677 0)
(0.660531 0.0551779 0)
(0.609809 0.0570256 0)
(0.558639 0.0584649 0)
(0.506614 0.0561727 0)
(0.451337 0.0426494 0)
(0.385486 0.0219178 0)
(0.274834 0.196767 0)
(0.999215 0.00614494 0)
(1.00202 0.0286947 0)
(1.0067 0.0389073 0)
(1.00096 0.0448453 0)
(0.98614 0.0499866 0)
(0.963212 0.0549751 0)
(0.932293 0.0601123 0)
(0.89447 0.0648707 0)
(0.851341 0.0685966 0)
(0.80466 0.0712148 0)
(0.756082 0.0732573 0)
(0.70673 0.075481 0)
(0.65699 0.0783212 0)
(0.606422 0.0810586 0)
(0.554149 0.0807214 0)
(0.496912 0.0718115 0)
(0.427571 0.0645018 0)
(0.318857 0.22643 0)
(0.999573 0.0073955 0)
(1.00225 0.0278739 0)
(1.00695 0.0391998 0)
(1.00408 0.0474002 0)
(0.993552 0.0552463 0)
(0.975542 0.0631809 0)
(0.949853 0.0712649 0)
(0.917194 0.0787893 0)
(0.878808 0.084928 0)
(0.836198 0.0894857 0)
(0.790905 0.0930181 0)
(0.74411 0.0964678 0)
(0.696373 0.100553 0)
(0.647433 0.104897 0)
(0.596269 0.107197 0)
(0.539521 0.104164 0)
(0.471618 0.108775 0)
(0.372924 0.251283 0)
(0.999613 0.00754211 0)
(1.00195 0.0264701 0)
(1.00614 0.0389631 0)
(1.00469 0.0492347 0)
(0.996842 0.059578 0)
(0.982333 0.0703575 0)
(0.960809 0.0814053 0)
(0.932688 0.0918158 0)
(0.898879 0.100585 0)
(0.860578 0.107376 0)
(0.819102 0.112721 0)
(0.775565 0.117694 0)
(0.730606 0.123271 0)
(0.684133 0.12947 0)
(0.63519 0.13479 0)
(0.580803 0.137861 0)
(0.517225 0.152148 0)
(0.431998 0.275043 0)
(0.999652 0.0073695 0)
(1.00154 0.0251578 0)
(1.00495 0.0386082 0)
(1.00411 0.0506714 0)
(0.99792 0.06329 0)
(0.985928 0.0767509 0)
(0.967724 0.090669 0)
(0.943527 0.103953 0)
(0.91398 0.115437 0)
(0.879983 0.124642 0)
(0.842592 0.132042 0)
(0.802781 0.138791 0)
(0.761198 0.146076 0)
(0.717895 0.154307 0)
(0.672101 0.162778 0)
(0.621484 0.171566 0)
(0.563903 0.193186 0)
(0.492478 0.298491 0)
(0.999727 0.00724049 0)
(1.00114 0.0241202 0)
(1.0037 0.0382948 0)
(1.00301 0.0519066 0)
(0.997855 0.0665922 0)
(0.987713 0.0825401 0)
(0.972186 0.0991676 0)
(0.95138 0.11522 0)
(0.925736 0.129395 0)
(0.895906 0.141085 0)
(0.862693 0.150693 0)
(0.826902 0.159399 0)
(0.789147 0.168548 0)
(0.749589 0.178904 0)
(0.707699 0.190453 0)
(0.66185 0.204235 0)
(0.611134 0.231078 0)
(0.552394 0.321448 0)
(0.999806 0.00717148 0)
(1.0008 0.0233431 0)
(1.00255 0.0380922 0)
(1.00178 0.053063 0)
(0.997299 0.0696218 0)
(0.988574 0.0878476 0)
(0.975261 0.106982 0)
(0.957411 0.125633 0)
(0.935327 0.142389 0)
(0.909465 0.15654 0)
(0.88041 0.168409 0)
(0.848801 0.179167 0)
(0.81519 0.190259 0)
(0.779822 0.202735 0)
(0.742413 0.217126 0)
(0.70198 0.235025 0)
(0.658472 0.265345 0)
(0.610942 0.343435 0)
(0.999873 0.00712632 0)
(1.00052 0.0227909 0)
(1.0016 0.0380307 0)
(1.00068 0.0542066 0)
(0.99668 0.0724567 0)
(0.98911 0.0927448 0)
(0.977698 0.114158 0)
(0.962475 0.13519 0)
(0.943654 0.154351 0)
(0.921544 0.170853 0)
(0.896558 0.184943 0)
(0.869186 0.197753 0)
(0.839917 0.210776 0)
(0.809049 0.225266 0)
(0.776521 0.242145 0)
(0.741868 0.263241 0)
(0.705578 0.295649 0)
(0.66786 0.363816 0)
(0.999919 0.00710001 0)
(1.00034 0.0224644 0)
(1.00095 0.0381083 0)
(0.999927 0.0552723 0)
(0.996321 0.0749191 0)
(0.989697 0.096904 0)
(0.979853 0.12019 0)
(0.966825 0.143186 0)
(0.950774 0.164354 0)
(0.931917 0.182855 0)
(0.910548 0.198875 0)
(0.887049 0.21349 0)
(0.861848 0.228194 0)
(0.835279 0.24436 0)
(0.807446 0.263129 0)
(0.778245 0.286359 0)
(0.748464 0.319704 0)
(0.718899 0.380407 0)
(0.999955 0.0070739 0)
(1.00023 0.0222526 0)
(1.00052 0.0382652 0)
(0.999483 0.0563129 0)
(0.996292 0.0772112 0)
(0.990584 0.100706 0)
(0.982217 0.125649 0)
(0.971241 0.150379 0)
(0.957785 0.17333 0)
(0.942003 0.193628 0)
(0.924102 0.211403 0)
(0.904381 0.227669 0)
(0.883212 0.243888 0)
(0.860945 0.261489 0)
(0.837807 0.281731 0)
(0.813956 0.306382 0)
(0.790303 0.339868 0)
(0.767987 0.394214 0)
(0.999986 0.00705034 0)
(1.00019 0.0221124 0)
(1.00032 0.0385081 0)
(0.999415 0.0574394 0)
(0.996802 0.0795869 0)
(0.992185 0.104576 0)
(0.985487 0.131144 0)
(0.976769 0.157569 0)
(0.966141 0.182264 0)
(0.953712 0.204338 0)
(0.939623 0.223865 0)
(0.924099 0.241777 0)
(0.907458 0.259474 0)
(0.89005 0.278384 0)
(0.872187 0.299806 0)
(0.854197 0.325327 0)
(0.836974 0.358209 0)
(0.821698 0.406351 0)
(1.00001 0.00700456 0)
(1.00024 0.0219819 0)
(1.00044 0.0387341 0)
(0.99993 0.0584919 0)
(0.998176 0.0818116 0)
(0.99495 0.108188 0)
(0.990219 0.136244 0)
(0.984054 0.164203 0)
(0.976548 0.190474 0)
(0.967774 0.214161 0)
(0.957828 0.235285 0)
(0.946875 0.254683 0)
(0.935183 0.273655 0)
(0.923081 0.293574 0)
(0.910917 0.315699 0)
(0.899094 0.341385 0)
(0.888398 0.372895 0)
(0.879826 0.415066 0)
(1.00003 0.0068934 0)
(1.00043 0.0217198 0)
(1.00099 0.0387008 0)
(1.00123 0.0591128 0)
(1.00075 0.0834001 0)
(0.999363 0.11092 0)
(0.997046 0.140185 0)
(0.993859 0.169371 0)
(0.989865 0.196897 0)
(0.985107 0.221867 0)
(0.979641 0.244254 0)
(0.973587 0.264787 0)
(0.967161 0.284638 0)
(0.960655 0.305077 0)
(0.954409 0.327261 0)
(0.948815 0.352304 0)
(0.944516 0.381687 0)
(0.942209 0.418103 0)
(1.00006 0.00663402 0)
(1.00077 0.0210465 0)
(1.00201 0.0379307 0)
(1.00347 0.0586098 0)
(1.0048 0.0834365 0)
(1.00583 0.11164 0)
(1.00653 0.141631 0)
(1.0069 0.171553 0)
(1.00695 0.199833 0)
(1.00667 0.225579 0)
(1.00607 0.248712 0)
(1.00522 0.269846 0)
(1.0043 0.290003 0)
(1.00353 0.310317 0)
(1.0032 0.331818 0)
(1.00366 0.355399 0)
(1.00537 0.381995 0)
(1.00872 0.412937 0)
(1.00011 0.00608511 0)
(1.00128 0.0194949 0)
(1.00355 0.0356194 0)
(1.00669 0.0558188 0)
(1.01041 0.0803861 0)
(1.01454 0.10846 0)
(1.01897 0.138389 0)
(1.0236 0.168296 0)
(1.02836 0.196619 0)
(1.03314 0.222458 0)
(1.0379 0.245666 0)
(1.04265 0.266727 0)
(1.04748 0.286502 0)
(1.05255 0.305967 0)
(1.0581 0.326012 0)
(1.06437 0.347359 0)
(1.07168 0.3706 0)
(1.08018 0.396306 0)
(1.00017 0.00502931 0)
(1.00197 0.0163531 0)
(1.00558 0.0305261 0)
(1.01085 0.0489332 0)
(1.01752 0.0718529 0)
(1.02536 0.0984136 0)
(1.03419 0.126976 0)
(1.0438 0.155691 0)
(1.05396 0.183016 0)
(1.06447 0.208028 0)
(1.07518 0.230492 0)
(1.08602 0.250748 0)
(1.09697 0.269487 0)
(1.10811 0.287523 0)
(1.11955 0.305619 0)
(1.13144 0.324387 0)
(1.14395 0.344264 0)
(1.15704 0.365522 0)
(1.00021 0.00362548 0)
(1.00259 0.0119999 0)
(1.00745 0.02319 0)
(1.01464 0.0386248 0)
(1.02387 0.0586208 0)
(1.03488 0.0823801 0)
(1.04742 0.108353 0)
(1.06121 0.13476 0)
(1.07594 0.16009 0)
(1.09135 0.183392 0)
(1.1072 0.204355 0)
(1.12334 0.223196 0)
(1.1397 0.240469 0)
(1.15627 0.256867 0)
(1.17308 0.273062 0)
(1.1902 0.28961 0)
(1.20772 0.30692 0)
(1.22555 0.32524 0)
(1.00023 0.00225041 0)
(1.00302 0.00769425 0)
(1.00882 0.0159201 0)
(1.0174 0.0283998 0)
(1.02836 0.0454608 0)
(1.04144 0.0663691 0)
(1.0564 0.0896556 0)
(1.07291 0.113601 0)
(1.09067 0.136719 0)
(1.10938 0.15805 0)
(1.1288 0.177236 0)
(1.14873 0.194417 0)
(1.16904 0.21006 0)
(1.18966 0.224769 0)
(1.21059 0.239145 0)
(1.23183 0.253698 0)
(1.25345 0.268813 0)
(1.27537 0.284745 0)
(1.00022 0.000919105 0)
(1.00328 0.0033692 0)
(1.00984 0.00862688 0)
(1.01944 0.0182163 0)
(1.03158 0.0324099 0)
(1.04601 0.0505115 0)
(1.06251 0.0711088 0)
(1.0808 0.0925184 0)
(1.1006 0.113276 0)
(1.12164 0.132428 0)
(1.14366 0.149598 0)
(1.16643 0.164884 0)
(1.18979 0.178692 0)
(1.21361 0.191564 0)
(1.23782 0.204036 0)
(1.26241 0.216566 0)
(1.28737 0.229502 0)
(1.31267 0.243086 0)
(1.00014 -0.000266889 0)
(1.00329 -0.000800575 0)
(1.01045 0.00166051 0)
(1.02075 0.00862937 0)
(1.03351 0.0202105 0)
(1.0486 0.0357226 0)
(1.06586 0.0537778 0)
(1.08509 0.0727031 0)
(1.10609 0.0910618 0)
(1.12861 0.107933 0)
(1.1524 0.122951 0)
(1.1772 0.136203 0)
(1.20279 0.148065 0)
(1.229 0.159029 0)
(1.2557 0.169584 0)
(1.28283 0.180133 0)
(1.31037 0.190982 0)
(1.33827 0.202349 0)
(0.999978 -0.0012385 0)
(1.00298 -0.00479285 0)
(1.01067 -0.00479666 0)
(1.02133 -1.74466e-05 0)
(1.03417 0.00932406 0)
(1.04923 0.0225676 0)
(1.06649 0.0383121 0)
(1.08588 0.0548746 0)
(1.1073 0.0708666 0)
(1.13058 0.0854337 0)
(1.15543 0.0982563 0)
(1.18156 0.109438 0)
(1.20868 0.119339 0)
(1.23655 0.12842 0)
(1.26502 0.137119 0)
(1.29396 0.14579 0)
(1.32333 0.154692 0)
(1.3531 0.164003 0)
(0.999689 -0.00172752 0)
(1.00229 -0.00858008 0)
(1.01056 -0.0106569 0)
(1.02123 -0.00752674 0)
(1.03347 3.98253e-05 0)
(1.04768 0.0114016 0)
(1.06407 0.0250959 0)
(1.08279 0.0394268 0)
(1.10391 0.0530999 0)
(1.12728 0.0653758 0)
(1.15259 0.0760141 0)
(1.17944 0.0851541 0)
(1.20748 0.0931538 0)
(1.23641 0.100439 0)
(1.266 0.1074 0)
(1.29612 0.114338 0)
(1.32669 0.121461 0)
(1.35769 0.128905 0)
(0.998921 -0.000768062 0)
(1.00091 -0.0115127 0)
(1.01009 -0.0155724 0)
(1.02021 -0.013656 0)
(1.03079 -0.00736222 0)
(1.043 0.00252756 0)
(1.05742 0.0143975 0)
(1.07452 0.0265727 0)
(1.0946 0.0379356 0)
(1.11748 0.0479254 0)
(1.14272 0.0564111 0)
(1.16981 0.0635774 0)
(1.19827 0.069777 0)
(1.22774 0.0753954 0)
(1.25793 0.0807667 0)
(1.2887 0.0861352 0)
(1.31993 0.0916579 0)
(1.35164 0.0974281 0)
(0.996802 0.00182865 0)
(0.998159 -0.0127184 0)
(1.00861 -0.0187836 0)
(1.01709 -0.0179593 0)
(1.02424 -0.0125086 0)
(1.03266 -0.00372843 0)
(1.04362 0.00642849 0)
(1.05809 0.0164009 0)
(1.07644 0.0253852 0)
(1.09834 0.0330661 0)
(1.1231 0.0394376 0)
(1.15002 0.0447219 0)
(1.17849 0.0492493 0)
(1.20805 0.0533491 0)
(1.2384 0.0572887 0)
(1.26937 0.0612497 0)
(1.30084 0.0653408 0)
(1.33285 0.0696176 0)
(0.994447 -0.0050287 0)
(0.995077 -0.0171714 0)
(1.00446 -0.021058 0)
(1.00798 -0.0202235 0)
(1.00838 -0.0151302 0)
(1.01029 -0.00720154 0)
(1.0159 0.00122769 0)
(1.02669 0.00882675 0)
(1.04278 0.0153286 0)
(1.06333 0.0206962 0)
(1.08726 0.0250317 0)
(1.11361 0.0285639 0)
(1.14165 0.0315722 0)
(1.17085 0.0343112 0)
(1.2009 0.0369719 0)
(1.23163 0.0396711 0)
(1.26293 0.0424699 0)
(1.29488 0.0453923 0)
(1.01253 -0.0707091 0)
(1.00578 -0.0635486 0)
(0.995793 -0.0338273 0)
(0.980376 -0.021952 0)
(0.965807 -0.0152241 0)
(0.956787 -0.00815701 0)
(0.954892 -0.00185519 0)
(0.961188 0.00319632 0)
(0.97462 0.0072695 0)
(0.99337 0.0105062 0)
(1.01585 0.0130459 0)
(1.0409 0.0150801 0)
(1.06769 0.016814 0)
(1.0957 0.0184177 0)
(1.12464 0.0200056 0)
(1.15436 0.0216342 0)
(1.18478 0.0233195 0)
(1.21602 0.0250593 0)
(0.969771 0.243921 0)
(0.97343 0.0758827 0)
(0.9146 0.00711204 0)
(0.844224 -0.00643313 0)
(0.797639 -0.00558904 0)
(0.774558 -0.00207737 0)
(0.767127 0.000471135 0)
(0.768809 0.00212923 0)
(0.777505 0.00335684 0)
(0.791472 0.00430531 0)
(0.809078 0.00503951 0)
(0.829159 0.00562557 0)
(0.850994 0.00613756 0)
(0.874195 0.00663623 0)
(0.898574 0.00715668 0)
(0.924077 0.00771104 0)
(0.950611 0.00828354 0)
(0.978242 0.0089052 0)
(0.0739235 -0.136811 -8.2256e-21)
(0.20772 -0.235538 6.8728e-21)
(0.379975 -0.263545 0)
(0.544338 -0.250659 0)
(0.681108 -0.217026 0)
(0.784424 -0.173567 -6.61818e-21)
(0.852667 -0.125201 0)
(0.88835 -0.0733973 0)
(0.885525 -0.0200611 0)
(0.845261 0.0298037 0)
(0.777078 0.0698715 7.04526e-21)
(0.691779 0.0956453 0)
(0.599961 0.10582 0)
(0.510208 0.102367 0)
(0.426983 0.0899869 0)
(0.34981 0.0750816 8.0384e-21)
(0.274525 0.0647413 0)
(0.195697 0.0644737 0)
(0.10834 0.0744135 0)
(0.0093389 0.0888764 0)
(-0.101943 0.103032 0)
(-0.22395 0.115899 0)
(-0.355391 0.127159 0)
(-0.494654 0.136552 9.98578e-21)
(-0.63995 0.14393 -1.00606e-20)
(-0.789521 0.14928 1.02027e-20)
(-0.941719 0.152704 1.04018e-20)
(-1.09505 0.154383 0)
(-1.24823 0.154542 0)
(-1.40016 0.153423 -1.12353e-20)
(-1.54992 0.151261 -1.15604e-20)
(-1.69681 0.148267 0)
(-1.84023 0.144622 0)
(-1.97975 0.140467 -1.25748e-20)
(-2.115 0.135909 0)
(-2.2457 0.13102 0)
(-2.3716 0.125846 1.35457e-20)
(-2.49247 0.120406 0)
(-2.60812 0.114703 1.41242e-20)
(-2.7183 0.108728 2.87718e-20)
(-2.8228 0.102463 0)
(-2.92134 0.0958853 0)
(-3.01367 0.0889718 0)
(-3.09946 0.0817024 0)
(-3.17839 0.0740639 0)
(-3.25011 0.0660537 3.09279e-20)
(-3.31424 0.0576842 3.10969e-20)
(-3.3704 0.0489909 3.1205e-20)
(-3.41821 0.0400448 0)
(-3.45729 0.0309534 -3.12306e-20)
(-3.48733 0.0219016 0)
(-3.50795 0.0131631 3.09926e-20)
(-3.51893 0.00498679 3.07656e-20)
(-3.52002 -0.00238542 0)
(-3.51329 -0.00892952 0)
(-3.49854 -0.0150823 0)
(-3.47598 -0.0210097 2.88434e-20)
(-3.44575 -0.0267602 0)
(-3.40798 -0.0323338 0)
(-3.36282 -0.037708 0)
(-3.31047 -0.0428492 0)
(-3.25117 -0.0477192 0)
(-3.18523 -0.0522771 0)
(-3.11301 -0.0564822 0)
(-3.03494 -0.0602947 0)
(-2.95149 -0.063677 -1.98411e-20)
(-2.8632 -0.0665947 0)
(-2.77066 -0.0690176 0)
(-2.6745 -0.0709206 1.58502e-20)
(-2.57539 -0.0722845 1.44751e-20)
(-2.47403 -0.0730968 0)
(-2.37115 -0.0733524 -1.1713e-20)
(-2.2675 -0.0730539 1.0345e-20)
(-2.1638 -0.0722125 0)
(-2.0608 -0.0708478 -7.6818e-21)
(-1.95923 -0.0689879 0)
(-1.85976 -0.0666694 0)
(-1.76307 -0.0639362 4.00026e-21)
(-1.66975 -0.0608396 0)
(-1.58035 -0.0574361 -1.84385e-21)
(-1.49536 -0.0537866 0)
(-1.41519 -0.0499548 -1.90465e-23)
(-1.34018 -0.0460045 -8.30323e-22)
(-1.27057 -0.0419983 -1.55817e-21)
(-1.20654 -0.0379952 -4.40286e-21)
(-1.14818 -0.0340491 5.52001e-21)
(-1.09551 -0.0302072 0)
(-1.04848 -0.0265091 0)
(-1.00696 -0.0229865 0)
(-0.970773 -0.0196639 8.35973e-21)
(-0.939703 -0.0165587 8.69344e-21)
(-0.913484 -0.0136835 -8.89373e-21)
(-0.891822 -0.0110462 0)
(-0.874399 -0.00865243 8.93551e-21)
(-0.860876 -0.00650605 8.79891e-21)
(-0.850901 -0.00460936 8.57231e-21)
(-0.844113 -0.00296555 0)
(-0.840168 -0.00157058 0)
(-0.838731 -0.000355043 0)
(-0.839391 0.000810262 6.98268e-21)
(-0.842064 0.00189219 0)
(-0.846511 0.00280557 0)
(-0.852475 0.00353442 -5.35045e-21)
(-0.859684 0.00408759 0)
(-0.867874 0.00448102 0)
(-0.876798 0.00473272 -3.58802e-21)
(-0.88623 0.00486077 0)
(-0.895968 0.00488237 0)
(-0.905834 0.00481346 1.84729e-21)
(-0.915668 0.00466839 1.29055e-21)
(-0.925333 0.00445979 0)
(-0.93471 0.00419863 -2.28565e-22)
(-0.943696 0.00389443 0)
(-0.952203 0.00355561 -7.52944e-22)
(-0.960154 0.00318983 0)
(-0.967488 0.00280344 -1.64506e-21)
(-0.974151 0.00240131 -2.05616e-21)
(-0.980098 0.00198797 0)
(-0.985292 0.00156764 0)
(-0.989704 0.00114466 0)
(-0.99331 0.000723599 0)
(-0.996087 0.000307704 0)
(-0.998017 -9.54095e-05 0)
(-0.999128 -0.000483418 0)
(-0.999447 -0.000858382 -4.51824e-21)
(-0.998963 -0.00122797 4.72828e-21)
(-0.99767 -0.0015962 0)
(-0.995555 -0.00196518 0)
(-0.992603 -0.00233668 0)
(-0.988794 -0.00271243 0)
(-0.984106 -0.00309411 1.09773e-20)
(-0.978514 -0.00348332 0)
(-0.971988 -0.00388152 -1.13299e-20)
(-0.964497 -0.00428995 1.1454e-20)
(-0.956005 -0.00470962 0)
(-0.946476 -0.00514124 0)
(-0.935871 -0.00558522 0)
(-0.92415 -0.00604164 -1.16152e-20)
(-0.911275 -0.00651023 -1.15742e-20)
(-0.897205 -0.00699033 0)
(-0.881904 -0.00748093 -1.1399e-20)
(-0.865337 -0.00798065 -1.12666e-20)
(-0.847472 -0.00848784 1.11057e-20)
(-0.82828 -0.00900063 0)
(-0.807741 -0.00951708 0)
(-0.785834 -0.0100353 1.04628e-20)
(-0.762546 -0.0105533 0)
(-0.73787 -0.0110695 0)
(-0.711802 -0.0115821 0)
(-0.684343 -0.0120886 0)
(-0.655508 -0.0125843 -8.91838e-21)
(-0.625331 -0.0130589 -8.54579e-21)
(-0.593979 -0.0135248 0)
(-0.56177 -0.0143172 -7.7289e-21)
(-0.526828 -0.0216404 0)
(-0.491648 -0.022075 0)
(-0.455356 -0.0122208 -6.03341e-21)
(-0.417284 -0.0112721 0)
(-0.377001 -0.0185094 -5.53322e-21)
(-0.337291 -0.0181619 0)
(-0.294465 -0.0169715 0)
(-0.252959 -0.0184841 -4.03702e-21)
(-0.208279 -0.0171742 0)
(-0.164355 -0.0189738 -3.06499e-21)
(-0.118199 -0.0186836 0)
(-0.0731543 -0.0191753 0)
(-0.0263999 -0.018059 0)
(0.0219165 -0.0173311 1.23626e-21)
(0.0686212 -0.0166483 0)
(0.113717 -0.0179972 -4.27029e-22)
(0.161368 -0.0173459 0)
(0.207074 -0.0161135 0)
(0.251516 -0.0119674 0)
(0.291067 -0.0121187 0)
(0.329993 -0.0100964 0)
(0.363385 -0.00987895 0)
(0.394286 -0.00781333 0)
(0.417536 -0.00246705 -2.17364e-21)
(0.43286 0.00118066 0)
(0.426401 0.00751669 0)
(0.115698 -0.473224 2.15753e-20)
(0.237406 -0.561969 -1.64274e-20)
(0.346755 -0.50996 0)
(0.430531 -0.421491 1.03317e-20)
(0.4866 -0.321844 0)
(0.518919 -0.219576 4.95837e-21)
(0.530612 -0.118131 -1.11402e-20)
(0.522358 -0.0191632 -1.15272e-20)
(0.500979 0.0730206 0)
(0.466302 0.152267 -1.16115e-20)
(0.414564 0.211809 -5.66761e-21)
(0.344851 0.247308 0)
(0.258415 0.260113 0)
(0.157318 0.258382 0)
(0.0430125 0.253948 0)
(-0.0839911 0.256664 -5.65943e-21)
(-0.223523 0.270399 0)
(-0.374202 0.293299 1.00113e-20)
(-0.533879 0.320635 0)
(-0.699756 0.347392 0)
(-0.869002 0.370442 -9.81855e-21)
(-1.03929 0.388602 0)
(-1.20875 0.401495 1.02214e-20)
(-1.37571 0.409159 -5.36699e-21)
(-1.53873 0.411944 5.54385e-21)
(-1.69668 0.410411 -5.76129e-21)
(-1.84876 0.405224 -6.01386e-21)
(-1.99443 0.397071 0)
(-2.13339 0.386607 0)
(-2.26553 0.374416 6.92227e-21)
(-2.3909 0.360994 -7.36581e-21)
(-2.5096 0.34674 0)
(-2.6218 0.331964 0)
(-2.72769 0.316887 8.27583e-21)
(-2.82746 0.301659 0)
(-2.92126 0.286372 0)
(-3.00925 0.271068 -9.24383e-21)
(-3.09154 0.255756 0)
(-3.16819 0.24042 9.93645e-21)
(-3.23927 0.225028 -2.01613e-20)
(-3.30479 0.209538 0)
(-3.36476 0.193908 0)
(-3.41916 0.178094 -4.32066e-20)
(-3.46797 0.162057 -4.38955e-20)
(-3.51117 0.145765 -4.44782e-20)
(-3.54874 0.129195 2.26682e-20)
(-3.58065 0.112335 -2.24383e-20)
(-3.60692 0.0951847 -6.80687e-20)
(-3.62757 0.0777657 4.56418e-20)
(-3.64269 0.0601294 2.2534e-20)
(-3.65235 0.0423895 0)
(-3.65674 0.0247487 -2.22783e-20)
(-3.65591 0.00745993 2.26834e-20)
(-3.64994 -0.00928197 0)
(-3.63699 -0.0254187 0)
(-3.61688 -0.0410922 0)
(-3.58943 -0.0563588 -2.02743e-20)
(-3.55457 -0.0712045 0)
(-3.51234 -0.0855737 3.89658e-20)
(-3.46285 -0.099387 0)
(-3.40628 -0.112552 3.61348e-20)
(-3.34286 -0.124973 0)
(-3.27288 -0.136548 -3.29387e-20)
(-3.19669 -0.147183 0)
(-3.11472 -0.156785 2.94571e-20)
(-3.02744 -0.16527 -1.44151e-20)
(-2.93535 -0.172562 0)
(-2.83903 -0.178596 -2.38953e-20)
(-2.73911 -0.183323 -1.03829e-20)
(-2.63622 -0.186704 -9.43334e-21)
(-2.53106 -0.188719 0)
(-2.42434 -0.189364 -8.77397e-21)
(-2.31678 -0.188652 -6.65595e-21)
(-2.2091 -0.186613 0)
(-2.10205 -0.183297 4.91487e-21)
(-1.99632 -0.17877 -9.26283e-21)
(-1.89261 -0.173114 0)
(-1.79158 -0.166428 -2.55286e-21)
(-1.69385 -0.158825 0)
(-1.59999 -0.150429 4.4006e-21)
(-1.51052 -0.141373 0)
(-1.42588 -0.131799 -6.91907e-22)
(-1.34645 -0.121852 5.37523e-22)
(-1.27255 -0.111676 -4.22094e-22)
(-1.20441 -0.101414 -1.83529e-21)
(-1.14217 -0.0912013 2.72474e-21)
(-1.08592 -0.0811642 0)
(-1.03564 -0.0714154 0)
(-0.99127 -0.0620526 0)
(-0.952658 -0.0531564 -1.66293e-20)
(-0.919601 -0.0447905 -5.96868e-21)
(-0.891842 -0.0370014 6.15336e-21)
(-0.869084 -0.0298204 0)
(-0.850996 -0.0232651 6.14125e-21)
(-0.83723 -0.0173413 -6.21234e-21)
(-0.827427 -0.0120458 -6.08628e-21)
(-0.821234 -0.00736969 0)
(-0.818297 -0.00329811 0)
(-0.818255 0.000215053 0)
(-0.820831 0.00326914 -5.03568e-21)
(-0.825572 0.00591297 0)
(-0.832052 0.00812254 8.70777e-21)
(-0.839934 0.0099024 1.17863e-20)
(-0.848933 0.0112788 -7.07406e-21)
(-0.8588 0.0122876 0)
(-0.869308 0.0129678 -2.75682e-21)
(-0.880256 0.0133582 0)
(-0.891462 0.0134961 -3.66166e-21)
(-0.902765 0.0134161 1.47806e-21)
(-0.914025 0.0131501 1.06546e-21)
(-0.925117 0.0127269 0)
(-0.935933 0.0121722 6.08427e-22)
(-0.946382 0.0115088 2.99569e-22)
(-0.956384 0.010757 5.50011e-22)
(-0.965873 0.00993471 0)
(-0.974795 0.00905752 1.20246e-21)
(-0.983106 0.00813904 4.44867e-21)
(-0.99077 0.00719126 0)
(-0.997762 0.00622432 4.0666e-21)
(-1.00406 0.00524697 4.57708e-21)
(-1.00966 0.00426681 5.05483e-21)
(-1.01454 0.00329128 0)
(-1.01872 0.00232725 0)
(-1.02214 0.0013764 0)
(-1.02476 0.000442306 -3.32931e-21)
(-1.02657 -0.000485775 -3.47864e-21)
(-1.02756 -0.00141072 0)
(-1.02772 -0.00233561 -7.53556e-21)
(-1.02702 -0.00326372 -7.77579e-21)
(-1.02544 -0.00419836 0)
(-1.02297 -0.00514283 -8.11905e-21)
(-1.01956 -0.00610028 -1.66812e-20)
(-1.01521 -0.00707358 8.40263e-21)
(-1.00986 -0.00806516 8.67594e-21)
(-1.00348 -0.00907692 0)
(-0.996039 -0.0101101 0)
(-0.987488 -0.0111653 0)
(-0.977785 -0.0122422 8.68225e-21)
(-0.966887 -0.0133399 -8.92317e-21)
(-0.95475 -0.0144565 -1.75278e-20)
(-0.941332 -0.0155893 8.56353e-21)
(-0.926591 -0.0167349 -8.78919e-21)
(-0.910491 -0.0178892 -8.37038e-21)
(-0.892995 -0.0190475 0)
(-0.874073 -0.0202052 0)
(-0.853699 -0.0213574 8.30388e-21)
(-0.83185 -0.0224994 0)
(-0.80851 -0.0236266 0)
(-0.783668 -0.0247345 -1.50264e-20)
(-0.757317 -0.0258177 0)
(-0.729453 -0.0268675 -7.25712e-21)
(-0.70007 -0.0278628 6.51074e-21)
(-0.669096 -0.0287515 0)
(-0.636338 -0.0293181 -6.45154e-21)
(-0.602224 -0.02936 0)
(-0.565842 -0.0298426 0)
(-0.529226 -0.0320536 4.72529e-21)
(-0.491716 -0.0339933 -9.57309e-21)
(-0.452046 -0.0338777 4.23373e-21)
(-0.41079 -0.0341333 0)
(-0.369096 -0.0351761 0)
(-0.32488 -0.0354102 -3.68767e-21)
(-0.280795 -0.0363306 0)
(-0.234486 -0.0364189 -2.95558e-21)
(-0.187827 -0.0367154 0)
(-0.139306 -0.036446 0)
(-0.0915518 -0.0369209 0)
(-0.0433124 -0.0372297 -9.78113e-22)
(0.00654761 -0.036242 0)
(0.0558394 -0.0349796 3.44629e-22)
(0.103047 -0.034686 0)
(0.150654 -0.0335477 0)
(0.196987 -0.0323156 1.83786e-22)
(0.2425 -0.0294579 -5.43336e-22)
(0.284332 -0.02696 0)
(0.323339 -0.0234302 0)
(0.35737 -0.0198628 0)
(0.386708 -0.0149513 5.10932e-21)
(0.409148 -0.00688785 0)
(0.422677 0.00348341 -4.66266e-21)
(0.0614742 -0.774552 2.2976e-22)
(0.13165 -0.755215 2.105e-20)
(0.168675 -0.623894 0)
(0.186117 -0.484546 -1.88138e-20)
(0.186805 -0.347545 0)
(0.173043 -0.215056 0)
(0.146472 -0.0881102 1.03505e-22)
(0.108279 0.0325794 1.03687e-20)
(0.0596258 0.146204 1.02106e-20)
(0.00106823 0.248862 1.03635e-20)
(-0.067451 0.33454 0)
(-0.14729 0.398992 0)
(-0.240648 0.443763 -8.57344e-21)
(-0.349451 0.475841 -1.60786e-20)
(-0.474108 0.503591 1.52009e-20)
(-0.61287 0.5326 0)
(-0.762079 0.564052 1.41245e-20)
(-0.917095 0.595866 -6.89404e-21)
(-1.07353 0.624851 0)
(-1.228 0.648327 1.40945e-20)
(-1.37821 0.664798 6.99456e-21)
(-1.52278 0.673812 -1.49438e-20)
(-1.66093 0.675619 -7.44131e-21)
(-1.79238 0.67091 0)
(-1.91719 0.660623 1.71239e-20)
(-2.03568 0.645798 1.80189e-20)
(-2.14828 0.627461 0)
(-2.25552 0.606551 1.99659e-20)
(-2.35788 0.583878 0)
(-2.45584 0.5601 2.20339e-20)
(-2.54979 0.535728 1.11776e-20)
(-2.64006 0.511135 0)
(-2.72689 0.486569 0)
(-2.81044 0.462182 0)
(-2.89083 0.438044 0)
(-2.96809 0.414167 0)
(-3.0422 0.390522 0)
(-3.11311 0.36705 2.99623e-20)
(-3.18072 0.343679 -4.59654e-20)
(-3.24492 0.320328 0)
(-3.30555 0.296922 0)
(-3.36242 0.273388 0)
(-3.41536 0.249671 -4.36597e-22)
(-3.46415 0.225725 3.35305e-20)
(-3.50857 0.201525 6.83195e-20)
(-3.54838 0.177064 -6.89584e-20)
(-3.58335 0.152355 -3.49619e-20)
(-3.61323 0.12743 3.45844e-20)
(-3.63777 0.102336 5.56999e-22)
(-3.65669 0.0771283 3.51393e-20)
(-3.66971 0.0518604 0)
(-3.67649 0.0265637 3.47832e-20)
(-3.67669 0.00124289 6.94973e-22)
(-3.66996 -0.0241006 0)
(-3.65606 -0.0494011 0)
(-3.63487 -0.0744541 -3.25073e-20)
(-3.60632 -0.0990795 0)
(-3.57038 -0.123117 0)
(-3.52708 -0.14641 3.06536e-20)
(-3.47652 -0.168795 5.74273e-20)
(-3.41886 -0.190111 -2.66644e-20)
(-3.35432 -0.21019 0)
(-3.28319 -0.228872 2.41593e-20)
(-3.20581 -0.246002 0)
(-3.1226 -0.261433 2.3347e-20)
(-3.034 -0.275031 2.00823e-20)
(-2.94054 -0.286682 -3.92146e-20)
(-2.84279 -0.296285 -1.91076e-20)
(-2.74135 -0.303764 0)
(-2.63688 -0.309066 3.0652e-20)
(-2.53005 -0.312163 0)
(-2.42157 -0.313053 3.66998e-20)
(-2.31217 -0.311761 2.23082e-20)
(-2.20257 -0.308341 1.96456e-20)
(-2.09349 -0.302874 -1.70634e-20)
(-1.98566 -0.295467 2.11198e-20)
(-1.87975 -0.286252 0)
(-1.77645 -0.275383 0)
(-1.67637 -0.263037 -7.73214e-21)
(-1.58008 -0.249405 -7.94942e-21)
(-1.48812 -0.234694 0)
(-1.40095 -0.219121 4.95043e-22)
(-1.31897 -0.202908 0)
(-1.2425 -0.18628 2.23989e-21)
(-1.17181 -0.169457 7.05498e-22)
(-1.10708 -0.152653 -6.1722e-22)
(-1.04841 -0.136071 -5.01033e-21)
(-0.99584 -0.119894 0)
(-0.949327 -0.104289 6.84166e-21)
(-0.90876 -0.089399 2.98972e-22)
(-0.873964 -0.0753398 0)
(-0.844705 -0.0622025 0)
(-0.8207 -0.050052 0)
(-0.801625 -0.0389278 -9.06309e-21)
(-0.787124 -0.0288469 0)
(-0.776826 -0.0198056 0)
(-0.77035 -0.0117812 0)
(-0.767305 -0.00473281 0)
(-0.767289 0.00139308 0)
(-0.769912 0.00663084 -7.66851e-21)
(-0.774788 0.0110196 0)
(-0.781564 0.0146242 -6.49439e-21)
(-0.789911 0.0175086 -5.90113e-21)
(-0.799534 0.0197372 5.2843e-21)
(-0.810165 0.0213753 0)
(-0.821564 0.0224877 4.01311e-21)
(-0.833514 0.0231371 0)
(-0.84582 0.0233828 2.73767e-21)
(-0.85831 0.0232799 -2.11207e-21)
(-0.870832 0.0228788 -4.70461e-21)
(-0.883253 0.0222253 0)
(-0.895456 0.0213606 -1.16777e-21)
(-0.907341 0.0203215 5.98927e-23)
(-0.918823 0.0191407 0)
(-0.92983 0.0178474 2.38693e-21)
(-0.9403 0.0164668 3.36486e-21)
(-0.950184 0.0150212 -6.49089e-21)
(-0.959442 0.0135295 0)
(-0.96804 0.0120076 -3.03543e-21)
(-0.975952 0.0104686 -3.41664e-21)
(-0.983155 0.00892262 -1.1275e-20)
(-0.98963 0.0073766 0)
(-0.995358 0.00583459 0)
(-1.00032 0.00429935 0)
(-1.0045 0.00277327 -4.98443e-21)
(-1.00788 0.00125332 0)
(-1.01045 -0.000263541 0)
(-1.0122 -0.001781 5.64573e-21)
(-1.01311 -0.00330371 5.83018e-21)
(-1.01317 -0.00483681 0)
(-1.01235 -0.00638553 0)
(-1.01062 -0.00795494 1.25437e-20)
(-1.00798 -0.00954975 0)
(-1.00437 -0.011174 -1.29528e-20)
(-0.999773 -0.0128311 -1.32536e-20)
(-0.994148 -0.0145232 0)
(-0.987456 -0.0162517 0)
(-0.979655 -0.0180165 1.35415e-20)
(-0.970704 -0.0198164 -2.06392e-22)
(-0.960558 -0.0216487 -2.20903e-22)
(-0.949174 -0.0235097 0)
(-0.936508 -0.0253943 2.6626e-20)
(-0.922519 -0.0272963 0)
(-0.907167 -0.0292086 0)
(-0.890413 -0.0311238 0)
(-0.872224 -0.033034 -1.24871e-20)
(-0.852569 -0.0349313 0)
(-0.831421 -0.036808 2.45637e-20)
(-0.808759 -0.0386565 1.16295e-20)
(-0.784564 -0.0404692 0)
(-0.758823 -0.0422378 1.09091e-20)
(-0.731516 -0.0439527 0)
(-0.702594 -0.0456084 0)
(-0.671966 -0.0472716 2.97197e-20)
(-0.640042 -0.0491359 -1.92017e-20)
(-0.606723 -0.0504797 0)
(-0.571674 -0.0515648 -1.67948e-20)
(-0.534922 -0.0531552 7.497e-21)
(-0.497021 -0.0547214 0)
(-0.457743 -0.05572 0)
(-0.417203 -0.0568097 0)
(-0.37495 -0.0577648 1.68749e-20)
(-0.331842 -0.0586808 0)
(-0.287252 -0.059481 4.16203e-21)
(-0.241857 -0.0600205 0)
(-0.195199 -0.0603013 0)
(-0.148059 -0.0605317 0)
(-0.100261 -0.0604603 0)
(-0.0518458 -0.0597288 0)
(-0.00312329 -0.0585979 0)
(0.044608 -0.0574656 1.95523e-21)
(0.0919889 -0.0556268 0)
(0.138284 -0.0530959 -1.49555e-22)
(0.183758 -0.0497336 7.70312e-22)
(0.226676 -0.0458029 0)
(0.267539 -0.0407698 0)
(0.303978 -0.0349554 -1.99506e-21)
(0.336849 -0.027107 -2.86119e-21)
(0.364501 -0.0163256 3.13159e-21)
(0.388168 -0.00325522 4.11615e-21)
(-0.00262248 -0.876848 -3.61896e-20)
(0.0111904 -0.769751 -2.88326e-20)
(-0.0120664 -0.610215 -1.7054e-20)
(-0.0440322 -0.447072 -7.48451e-21)
(-0.0841729 -0.288006 0)
(-0.132302 -0.134753 1.58629e-20)
(-0.188142 0.0118921 -7.27939e-21)
(-0.251518 0.150855 0)
(-0.322076 0.280417 -8.10274e-21)
(-0.399352 0.397819 0)
(-0.483393 0.499815 1.41366e-20)
(-0.575263 0.584772 0)
(-0.676496 0.654102 6.55544e-21)
(-0.787844 0.711455 1.23687e-20)
(-0.908303 0.760494 -1.17804e-20)
(-1.03511 0.803177 0)
(-1.16459 0.839506 -1.1105e-20)
(-1.2932 0.868383 0)
(-1.41826 0.888689 0)
(-1.5382 0.899939 -1.12579e-20)
(-1.65237 0.902418 0)
(-1.76076 0.896984 -9.55243e-22)
(-1.86378 0.8848 0)
(-1.96205 0.867136 0)
(-2.05629 0.845229 9.85727e-22)
(-2.1472 0.820203 -1.46149e-20)
(-2.23542 0.793023 -1.63383e-20)
(-2.32145 0.764477 -1.62291e-20)
(-2.4057 0.735174 0)
(-2.48844 0.705563 -3.66959e-20)
(-2.56981 0.675949 0)
(-2.64989 0.646517 -2.04199e-20)
(-2.72866 0.61736 0)
(-2.80603 0.588497 0)
(-2.88186 0.559891 2.28919e-20)
(-2.95597 0.531472 0)
(-3.02816 0.503141 -2.44596e-20)
(-3.09819 0.474789 6.02066e-22)
(-3.16581 0.446303 5.12291e-20)
(-3.23073 0.41757 -5.31712e-20)
(-3.29267 0.388486 0)
(-3.35133 0.35896 0)
(-3.40638 0.328915 -2.89458e-20)
(-3.45751 0.298291 0)
(-3.50438 0.26705 -2.85329e-20)
(-3.54664 0.235172 2.88528e-20)
(-3.58397 0.202662 2.91011e-20)
(-3.61601 0.169544 0)
(-3.64242 0.135868 -2.937e-20)
(-3.66286 0.101703 -2.9385e-20)
(-3.677 0.067138 6.01738e-20)
(-3.68451 0.0322729 -2.91627e-20)
(-3.68511 -0.00279093 -2.88326e-20)
(-3.67857 -0.0379332 0)
(-3.66474 -0.0729997 0)
(-3.64348 -0.107773 2.72635e-20)
(-3.61473 -0.142025 0)
(-3.57844 -0.175523 0)
(-3.53466 -0.208033 -4.9929e-20)