/*--------------------------------*- C++ -*----------------------------------*\
  =========                 |
  \\      /  F ield         | OpenFOAM: The Open Source CFD Toolbox
   \\    /   O peration     | Website:  https://openfoam.org
    \\  /    A nd           | Version:  9
     \\/     M anipulation  |
\*---------------------------------------------------------------------------*/
FoamFile
{
    format      ascii;
    class       volScalarField;
    location    "0.1";
    object      epsilon;
}
// * * * * * * * * * * * * * * * * * * * * * * * * * * * * * * * * * * * * * //

dimensions      [0 2 -3 0 0 0 0];

internalField   nonuniform List<scalar> 
12225
(
210.03
126.633
82.1545
58.7767
46.1597
38.8235
34.0415
30.5391
27.7446
25.395
23.3551
21.5446
19.912
18.426
17.0769
15.907
15.2422
19.8638
35.4476
49.3118
69.5521
80.4195
85.9875
89.0652
90.9487
92.3288
93.6127
95.0808
96.977
99.579
103.288
108.799
117.513
132.908
172.237
340.124
27.7944
56.4979
100.813
134.114
156.144
169.776
177.566
181.645
183.554
184.362
184.825
185.534
187.078
190.288
196.776
210.459
245.212
375.901
23.8104
36.5052
58.8419
79.1565
94.6502
105.311
111.993
115.801
117.716
118.509
118.788
119.065
119.874
121.948
126.583
136.445
157.288
214.667
23.0163
27.6295
34.8162
42.978
50.2352
55.7962
59.6075
61.994
63.372
64.1394
64.6547
65.261
66.342
68.4171
72.2993
79.3953
91.5947
113.895
22.9438
25.354
26.2626
28.2005
30.4858
32.5672
34.1714
35.2966
36.0662
36.6504
37.2352
38.0233
39.2554
41.2471
44.4389
49.492
56.7319
66.1256
22.5724
24.7549
23.7471
23.1786
23.0209
23.1772
23.4332
23.6971
23.9687
24.3006
24.7757
25.5
26.6061
28.261
30.674
34.1238
38.3321
42.6192
21.8814
24.1218
22.9127
21.671
20.5362
19.7834
19.3287
19.0895
19.0275
19.1418
19.4586
20.0223
20.8926
22.1409
23.8463
26.0969
28.424
30.4412
21.1595
23.3703
22.4667
21.314
19.9595
18.8965
18.155
17.6903
17.4621
17.4484
17.6436
18.0534
18.6894
19.5634
20.6827
22.0363
23.137
23.9155
20.6925
23.046
22.6116
21.7075
20.3731
19.2372
18.4104
17.8745
17.5867
17.5083
17.6099
17.8698
18.2689
18.7852
19.3903
20.0229
20.2393
20.1213
21.9015
23.9264
23.2936
22.2546
20.7987
19.5891
18.7218
18.1479
17.7942
17.5974
17.511
17.5025
17.5481
17.627
17.7182
17.7645
17.4512
16.9649
23.0973
24.3443
23.2592
22.2446
20.9981
19.9946
19.2231
18.5934
18.0294
17.4851
16.9404
16.3951
15.8626
15.3665
14.9397
14.591
14.2123
14.3263
23.5149
23.9741
23.2088
23.1243
22.7843
22.3329
21.742
20.9885
20.0827
19.0577
17.9604
16.8458
15.7743
14.8106
14.0258
13.4543
13.2581
13.6679
22.8914
22.426
21.9538
22.354
22.6485
22.5991
22.1673
21.3956
20.3681
19.1798
17.9225
16.6807
15.5308
14.5416
13.7799
13.2406
13.206
13.633
21.2315
20.5774
19.8601
19.3273
18.9106
18.5107
18.0177
17.3943
16.659
15.858
15.0464
14.2787
13.6035
13.0624
12.7
12.4459
12.5944
12.9038
19.3776
19.4582
19.2334
18.215
17.288
16.4883
15.7758
15.1146
14.4925
13.9145
13.3949
12.9508
12.5973
12.3488
12.2317
12.1157
12.3349
12.4676
17.4676
18.4274
19.0572
18.0754
17.0964
16.2016
15.4146
14.7297
14.1388
13.637
13.2223
12.8933
12.6476
12.4857
12.4258
12.2917
12.4755
12.4055
15.8423
17.3111
18.5641
17.7069
16.8171
15.99
15.2662
14.6503
14.135
13.7108
13.3682
13.0979
12.8907
12.7431
12.6722
12.4758
12.5887
12.3459
14.8887
16.2601
17.6255
16.8799
16.1485
15.4912
14.9288
14.4549
14.0562
13.7197
13.4344
13.1909
12.9814
12.8051
12.682
12.4098
12.4078
12.0295
14.8619
15.3647
15.98
15.3685
14.8577
14.4373
14.0859
13.7752
13.4861
13.2086
12.9388
12.6762
12.4221
12.1827
11.9799
11.6625
11.5177
11.1316
15.0845
15.0014
15.0665
14.5296
14.0892
13.7148
13.3769
13.05
12.7228
12.3933
12.0655
11.7449
11.4379
11.1529
10.9099
10.5998
10.418
10.0886
15.3121
14.937
14.7009
14.272
13.8769
13.498
13.1189
12.7272
12.324
11.9165
11.5151
11.13
10.7702
10.4448
10.1712
9.87493
9.67483
9.39273
15.5715
15.1227
14.744
14.4231
14.0366
13.6118
13.1566
12.6802
12.1965
11.7193
11.2611
10.8324
10.4418
10.097
9.81141
9.54029
9.33135
9.08788
15.9564
15.6523
15.2219
14.8917
14.4182
13.8935
13.3468
12.7973
12.2621
11.7546
11.2843
10.8581
10.4818
10.1608
9.90453
9.69411
9.51151
9.32067
16.5234
16.476
15.9831
15.5159
14.944
14.3802
13.8385
13.3251
12.8465
12.4095
12.0195
11.6802
11.3966
11.1733
11.0194
10.9403
10.8584
10.7659
17.1219
17.3269
16.9941
16.6739
16.3965
16.1696
15.9522
15.7336
15.5181
15.3162
15.1405
15.001
14.9084
14.8755
14.9189
15.0766
15.2205
15.3125
17.4918
18.3368
19.7237
20.9926
22.1704
23.1095
23.772
24.2047
24.4752
24.6486
24.7772
24.908
25.0681
25.2914
25.6164
26.1373
26.7113
27.1338
18.2774
21.7886
28.553
33.6619
37.4314
40.0137
41.6644
42.6766
43.2866
43.6767
43.9846
44.3067
44.7209
45.2715
46.0237
47.1536
48.6479
49.7962
24.8372
28.9051
34.9253
37.6981
38.9965
39.5121
39.6026
39.5061
39.3783
39.3229
39.4219
39.7357
40.3219
41.2171
42.4821
44.2887
46.9111
49.4892
136.057
97.1804
71.7065
54.9376
43.8557
36.4816
31.4951
28.0267
25.5293
23.6697
22.2469
21.1439
20.2963
19.6294
19.0973
18.67
18.3265
18.0523
7.00564
3.16724
4.03715
4.68012
5.17645
5.57466
5.91108
6.21846
6.534
6.88613
7.27324
7.68515
8.09664
8.46115
8.70537
8.74947
8.81234
8.96064
38.8682
40.1065
41.3308
41.5517
39.4365
39.2831
39.7625
39.8517
39.7589
39.2236
40.0232
44.0211
48.2635
52.5554
56.823
61.02
65.1157
69.089
72.9266
76.6209
80.1689
83.5704
86.8278
89.9451
92.9273
95.78
98.5097
101.123
103.628
106.031
108.344
110.578
112.746
114.867
116.965
119.071
121.103
123.048
124.913
126.698
128.403
130.025
131.561
133.007
134.357
135.605
136.745
137.77
138.672
139.442
140.073
140.554
140.876
141.03
141.004
140.79
140.377
139.754
138.914
137.847
136.546
135.004
133.217
131.182
128.897
126.364
123.587
120.572
117.332
113.881
110.245
106.482
102.837
100.108
98.4478
96.892
95.2717
93.555
91.7442
89.8525
87.8973
85.8971
83.8703
81.8343
79.8049
77.7957
75.8185
73.8824
71.9942
70.1583
68.3771
66.6506
64.9771
63.3533
61.7744
60.2342
58.726
57.2426
55.7784
54.3351
52.9739
12.2814
12.4003
12.4647
12.469
12.4167
12.316
12.1762
12.0073
11.8207
11.6299
11.4509
11.2982
11.1761
11.0618
10.8868
10.5319
9.85696
8.77155
7.31714
5.69651
4.19573
3.03151
2.25667
1.7982
1.5494
1.42485
1.37005
1.35347
1.35741
1.37192
1.39136
1.41245
1.4333
1.45288
1.47084
1.48746
1.50216
1.51387
1.52248
1.52823
1.53147
1.53259
1.53199
1.53001
1.52698
1.52318
1.51886
1.51421
1.50937
1.50447
1.49957
1.49468
1.48981
1.4854
1.48146
1.47761
1.47358
1.469
1.46343
1.45519
1.44312
11.0174
27.6944
33.404
34.4626
33.6201
32.0837
30.3736
28.7617
27.3915
26.3059
25.5443
25.1144
25.0125
25.1534
25.5068
26.1447
26.9746
28.0293
29.8128
31.8957
34.384
37.2828
40.6335
44.5934
49.061
53.7013
58.4106
62.7396
67.5343
72.9268
78.2094
83.0134
87.2241
90.834
93.8876
96.4571
98.6253
100.476
102.086
103.525
104.853
106.121
107.359
108.593
109.857
111.181
112.585
114.089
115.715
117.484
119.4
121.48
123.714
126.116
128.686
131.416
134.298
137.322
140.478
143.757
147.147
150.639
154.222
157.886
161.619
165.409
169.24
173.096
176.957
180.803
184.608
188.341
191.971
195.457
198.758
201.824
204.601
207.028
209.04
210.563
211.523
211.839
211.429
210.212
208.11
205.005
200.747
195.349
188.864
181.768
173.74
166.438
161.007
156.214
152.05
148.164
144.333
140.406
136.299
131.977
127.442
122.713
117.825
112.838
107.809
102.792
97.8325
92.971
88.239
83.6611
79.2551
75.0324
70.999
67.1561
63.4992
60.0135
56.6866
53.5045
50.4159
46.5188
42.4157
38.415
34.8901
31.7461
28.9472
26.474
24.2914
22.3646
20.6656
19.1732
17.8736
16.755
15.7991
14.9699
14.2056
13.423
12.5398
11.5074
10.334
9.07942
7.82635
6.64881
5.59551
4.68828
3.92842
3.30499
2.80137
2.39941
2.08167
1.83248
1.63838
1.48813
1.37252
1.28414
1.21706
1.16659
1.12883
1.10075
1.07996
1.06458
1.05321
1.0448
1.03856
1.03391
1.03045
1.0279
1.02609
1.02493
1.02439
1.02451
1.02541
1.02727
1.03044
1.03555
1.04346
1.05591
1.0767
1.11622
1.21046
1.57482
17.4317
40.8595
48.8816
49.5801
47.4291
44.3396
41.1153
38.1442
35.5672
33.4384
31.8133
30.6926
29.9952
29.7214
29.8595
30.382
31.2992
32.5813
34.1857
36.02
37.9728
39.9615
41.9043
43.7699
45.5418
46.9409
47.9362
48.5178
49.3012
50.2597
51.5321
53.0217
54.6272
56.2811
57.9358
59.5627
61.148
62.6882
64.1856
65.6454
67.0706
68.4609
69.8385
71.2223
72.61
74.0008
75.3957
76.7963
78.2057
79.6284
81.0617
82.5064
83.9462
85.4038
86.8893
88.4151
89.9909
91.6216
93.3096
95.0555
96.8583
98.716
100.626
102.585
104.589
106.633
108.715
110.827
112.965
115.122
117.29
119.463
121.631
123.785
125.914
128.008
130.054
132.041
133.956
135.787
137.522
139.151
140.664
142.057
143.325
144.469
145.488
146.391
147.151
147.762
147.835
146.474
143.42
139.207
134.351
129.164
123.861
118.562
113.336
108.22
103.233
98.3901
93.6972
89.1612
84.7877
80.5816
76.5466
72.6857
69
65.4896
62.1524
58.985
55.9818
53.1356
50.4381
47.8844
45.4587
43.1366
40.8684
38.5424
36.4518
34.2958
32.1955
30.0649
27.9926
26.0222
24.1842
22.4912
20.9491
19.5617
18.3338
17.2704
16.3711
15.6185
14.9657
14.3333
13.6253
12.7624
11.7153
10.5157
9.23869
7.9705
6.78192
5.71761
4.79713
4.0216
3.38094
2.8596
2.44023
2.1059
1.8413
1.63323
1.47063
1.3444
1.24712
1.17279
1.11618
1.07317
1.04049
1.01556
0.996311
0.981161
0.968891
0.958595
0.949613
0.941473
0.93385
0.926524
0.91935
0.912231
0.905104
0.897919
0.890673
0.883363
0.875936
0.868432
0.861209
0.855939
0.861095
0.939741
24.6902
56.321
67.6903
67.4457
62.9758
57.3631
51.8365
46.8494
42.568
39.059
36.2824
34.1692
32.665
31.702
31.1976
31.0589
31.188
31.4891
31.8724
32.2674
32.6291
32.9388
33.2031
33.4411
33.6611
33.8269
33.9186
34.0214
34.2467
34.6584
35.2581
36.0296
36.9414
37.9406
38.981
40.0325
41.0722
42.0842
43.0589
43.9911
44.8814
45.7414
46.5723
47.3784
48.1637
48.9325
49.6892
50.4379
51.1824
51.9261
52.6715
53.415
54.1547
54.8954
55.6431
56.4054
57.1888
57.9969
58.832
59.6952
60.5868
61.5061
62.4521
63.4235
64.4183
65.4345
66.4696
67.5209
68.5853
69.6595
70.7398
71.822
72.9017
73.974
75.0339
76.0758
77.0942
78.0831
79.0369
79.9498
80.8165
81.6321
82.3929
83.0958
83.7393
84.323
84.8459
85.3035
85.6684
85.895
85.8937
85.4672
84.5119
83.0787
81.2278
79.0558
76.6629
74.1261
71.503
68.837
66.1607
63.4994
60.8725
58.2954
55.7804
53.3374
50.9739
48.6959
46.5076
44.4117
42.4093
40.5002
38.6828
36.954
35.3095
33.7439
32.25
30.8182
29.4625
28.1788
26.9896
25.8767
24.7477
23.5594
22.3445
21.1311
19.9457
18.8063
17.727
16.7208
15.8016
14.9848
14.2839
13.7016
13.2182
12.783
12.3203
11.7514
11.0239
10.1306
9.10845
8.02301
6.94564
5.93532
5.02981
4.24607
3.58563
3.04056
2.59806
2.24356
1.96265
1.74213
1.57052
1.43815
1.33692
1.26033
1.2026
1.15912
1.12636
1.10153
1.08239
1.06722
1.05471
1.04391
1.03413
1.02489
1.01587
1.00686
0.997724
0.988349
0.978644
0.968513
0.957773
0.94626
0.933432
0.91849
0.900112
0.876206
0.845485
0.825008
32.567
74.8844
91.2778
89.4067
81.503
72.4709
63.9993
56.5995
50.3976
45.3258
41.2481
38.0317
35.5473
33.6666
32.2625
31.2128
30.4064
29.7524
29.1875
28.6777
28.2145
27.8061
27.4686
27.216
27.0512
26.9632
26.942
26.9972
27.1497
27.4097
27.77
28.2151
28.7263
29.2842
29.8721
30.4689
31.0585
31.63
32.1766
32.6965
33.1921
33.6645
34.1155
34.548
34.9654
35.3711
35.7684
36.1604
36.55
36.9391
37.3308
37.7224
38.1134
38.5041
38.8982
39.2993
39.7114
40.1371
40.5779
41.0346
41.5076
41.9968
42.5017
43.0215
43.5551
44.1011
44.6581
45.2241
45.7971
46.3748
46.9547
47.5339
48.1093
48.6776
49.2352
49.7782
50.3027
50.8046
51.2795
51.7235
52.1323
52.5023
52.8298
53.1117
53.3452
53.5276
53.6549
53.7204
53.7079
53.5899
53.3482
52.9714
52.4545
51.7826
50.9307
49.9106
48.7516
47.4826
46.1304
44.7187
43.2677
41.7951
40.3156
38.8421
37.3852
35.9539
34.5555
33.1962
31.8806
30.6124
29.394
28.2267
27.1112
26.0468
25.0322
24.0652
23.143
22.2627
21.4259
20.6551
19.9775
19.3575
18.7393
18.0928
17.4174
16.7238
16.0239
15.3287
14.6482
13.9928
13.3753
12.811
12.3164
11.9035
11.5691
11.2855
10.9977
10.6366
10.1431
9.48991
8.6889
7.78459
6.83859
5.91207
5.05247
4.28821
3.63054
3.07875
2.62503
2.25815
1.96562
1.73522
1.55577
1.41749
1.31212
1.23259
1.17301
1.12852
1.09541
1.07079
1.05229
1.03808
1.02677
1.01731
1.00895
1.00116
0.993581
0.985979
0.978193
0.970114
0.961646
0.952689
0.943091
0.932561
0.920599
0.906341
0.888441
0.864857
0.834167
0.804104
40.6701
95.9274
120.219
116.032
103.694
90.5111
78.5934
68.4495
60.0468
53.1735
47.5978
43.1032
39.4943
36.5955
34.2505
32.3251
30.7117
29.3325
28.1386
27.1048
26.2213
25.4852
24.8949
24.4455
24.1269
23.9247
23.8237
23.812
23.881
24.0222
24.2249
24.4769
24.7659
25.0803
25.4097
25.7445
26.0771
26.4013
26.7129
27.0099
27.2918
27.559
27.8128
28.0548
28.2871
28.5119
28.7315
28.9478
29.1628
29.3779
29.5954
29.8142
30.0344
30.2556
30.4801
30.7095
30.9464
31.1923
31.4485
31.7155
31.9938
32.2835
32.5842
32.8956
33.2169
33.5474
33.8859
34.2311
34.5817
34.9359
35.2918
35.6472
35.9998
36.3471
36.6861
37.0139
37.3272
37.6227
37.8968
38.1461
38.3668
38.5553
38.7081
38.8216
38.8923
38.9163
38.8886
38.8037
38.6524
38.4152
38.0882
37.6951
37.2522
36.7472
36.1583
35.4825
34.728
33.9057
33.0281
32.1073
31.1555
30.1836
29.2016
28.2185
27.242
26.2789
25.3349
24.4148
23.5223
22.6604
21.8316
21.0373
20.2783
19.555
18.867
18.2134
17.5934
17.0062
16.4533
15.9433
15.4861
15.0804
14.6979
14.3135
13.9149
13.5046
13.0855
12.6627
12.2408
11.8258
11.4259
11.0527
10.7201
10.4413
10.2212
10.0466
9.88035
9.66602
9.34508
8.87825
8.25868
7.51241
6.68878
5.84591
5.03603
4.29608
3.64576
3.0909
2.62841
2.25028
1.9462
1.70521
1.5167
1.37104
1.25988
1.17586
1.11299
1.06615
1.03147
1.00593
0.987084
0.972998
0.962191
0.953546
0.946245
0.9397
0.933505
0.927382
0.921145
0.914666
0.907841
0.900565
0.892714
0.883994
0.874009
0.862064
0.847222
0.828319
0.805314
0.783564
48.2373
118.781
154.521
147.276
129.671
111.772
96.0745
82.9291
72.0913
63.2024
55.9221
49.9566
45.0568
41.0128
37.6508
34.8313
32.4474
30.4217
28.7007
27.2478
26.0366
25.0455
24.2544
23.6429
23.1898
22.8736
22.6731
22.5689
22.5438
22.5829
22.6729
22.8019
22.9597
23.1372
23.3267
23.5218
23.7174
23.9093
24.0948
24.272
24.44
24.5988
24.7487
24.8906
25.0258
25.1556
25.2815
25.4048
25.5268
25.6489
25.7725
25.8977
26.0246
26.1537
26.286
26.4228
26.5652
26.7144
26.8713
27.0363
27.2099
27.3922
27.5831
27.7825
27.99
28.2049
28.4266
28.6543
28.8868
29.1229
29.3612
29.6001
29.8376
30.0718
30.3004
30.5208
30.7305
30.9265
31.1058
31.2651
31.4013
31.5107
31.5898
31.635
31.6423
31.6076
31.5259
31.3931
31.2003
30.9291
30.5775
30.178
29.7488
29.2786
28.7559
28.1789
27.5514
26.8797
26.1711
25.4339
24.6764
23.9064
23.1314
22.3582
21.5927
20.8401
20.1048
19.3904
18.6998
18.0353
17.3988
16.7915
16.214
15.6666
15.1492
14.6614
14.2025
13.7723
13.3716
13.0037
12.6716
12.3729
12.0951
11.829
11.5659
11.2999
11.0306
10.7597
10.4887
10.2204
9.95923
9.71276
9.49125
9.30602
9.1644
9.06195
8.97498
8.85972
8.66256
8.33815
7.86547
7.25436
6.54135
5.77839
5.01874
4.3052
3.66466
3.10911
2.63991
2.2521
1.93742
1.68621
1.4886
1.33523
1.21776
1.12875
1.06201
1.01225
0.975412
0.948345
0.9285
0.913865
0.902886
0.894383
0.887481
0.881545
0.876128
0.870919
0.865705
0.860337
0.854701
0.848689
0.842193
0.834958
0.826684
0.816872
0.804988
0.790601
0.774569
0.760731
54.9043
143.018
193.471
182.788
159.489
136.704
117.079
100.721
87.1948
76.0133
66.7497
59.0517
52.6315
47.2554
42.7349
38.9213
35.6986
32.9779
30.6899
28.7795
27.2009
25.9137
24.8813
24.07
23.4481
22.9863
22.6577
22.4382
22.3068
22.2451
22.238
22.2724
22.3376
22.4249
22.5268
22.6375
22.7523
22.8674
22.9802
23.0887
23.1917
23.2886
23.3793
23.4641
23.5435
23.6183
23.6895
23.7579
23.8246
23.8904
23.9567
24.0237
24.0919
24.1621
24.2352
24.3119
24.3928
24.4787
24.5703
24.6679
24.772
24.8826
25.0001
25.1241
25.2547
25.3915
25.5341
25.6819
25.8343
25.9902
26.1489
26.3089
26.4689
26.6273
26.7823
26.932
27.074
27.2061
27.3255
27.4294
27.5149
27.5786
27.6172
27.627
27.6041
27.5441
27.4421
27.294
27.086
26.8005
26.4463
26.052
25.6296
25.1706
24.6682
24.1235
23.5397
22.9222
22.2773
21.6117
20.9327
20.247
19.5612
18.881
18.2116
17.5575
16.9223
16.3089
15.7198
15.1568
14.6212
14.1139
13.6354
13.1856
12.7644
12.3711
12.0051
11.666
11.3535
11.0684
10.8109
10.5791
10.3659
10.1643
9.97027
9.78219
9.59573
9.41107
9.22834
9.0484
8.87355
8.70828
8.55968
8.43657
8.34636
8.28921
8.25093
8.19909
8.08731
7.86881
7.51283
7.0155
6.40085
5.71298
5.00336
4.31802
3.68959
3.1357
2.66199
2.26642
1.94264
1.68227
1.47618
1.3154
1.1917
1.09765
1.0269
0.974021
0.934779
0.905895
0.884727
0.869179
0.857627
0.848834
0.841879
0.836088
0.830978
0.826212
0.821554
0.816842
0.811952
0.806774
0.801213
0.795061
0.788102
0.780009
0.770542
0.759723
0.748757
0.740168
60.3571
169.16
236.187
222.14
193.577
166.117
142.488
122.67
106.123
92.2839
80.6741
70.9046
62.6622
55.6939
49.7958
44.8037
40.5847
37.0304
34.0508
31.5694
29.5199
27.8433
26.4871
25.4043
24.5525
23.8942
23.3963
23.0295
22.769
22.5932
22.4843
22.4274
22.41
22.4221
22.4555
22.5035
22.5608
22.623
22.6871
22.7505
22.8115
22.8688
22.9218
22.9702
23.014
23.0535
23.089
23.1213
23.1509
23.1785
23.2051
23.231
23.257
23.2838
23.3124
23.3434
23.3769
23.4136
23.4538
23.498
23.5465
23.5995
23.6573
23.7198
23.7872
23.8594
23.9362
24.0173
24.1023
24.1907
24.2818
24.3748
24.4688
24.5625
24.6546
24.7436
24.8278
24.9051
24.9735
25.0305
25.0734
25.0994
25.1052
25.0872
25.0416
24.9637
24.8482
24.6867
24.4616
24.1638
23.8137
23.4336
23.0236
22.5759
22.0883
21.5625
21.0018
20.4114
19.7971
19.1658
18.5242
17.879
17.2366
16.6025
15.9818
15.3786
14.7963
14.2378
13.7052
13.1999
12.7231
12.2753
11.8568
11.4675
11.1067
10.7738
10.4678
10.1877
9.93264
9.70197
9.49473
9.30916
9.14067
8.98396
8.83581
8.69584
8.56064
8.42966
8.30238
8.17875
8.0597
7.94784
7.84788
7.76641
7.70999
7.68097
7.67155
7.65848
7.60339
7.46149
7.19634
6.79327
6.26478
5.64646
4.98599
4.33044
3.71648
3.16664
2.69066
2.28933
1.95816
1.68994
1.47631
1.30871
1.17911
1.08016
1.00542
0.949363
0.907618
0.87678
0.854119
0.837456
0.825102
0.815766
0.808484
0.802545
0.79744
0.792808
0.788396
0.784028
0.779574
0.774927
0.770002
0.764634
0.758681
0.751943
0.744376
0.736234
0.728743
0.723376
63.7301
199.589
281.534
265.669
232.935
201.089
173.318
149.697
129.694
112.736
98.3277
86.0654
75.6198
66.7218
59.1495
52.7181
47.2721
42.6791
38.8247
35.6089
32.9434
30.7502
28.9598
27.511
26.35
25.4295
24.7085
24.1516
23.7286
23.4139
23.1858
23.0264
22.9206
22.8563
22.8233
22.8135
22.82
22.8377
22.8622
22.8902
22.9191
22.947
22.9726
22.9948
23.0131
23.0273
23.0373
23.0434
23.0457
23.0448
23.0413
23.0354
23.028
23.0197
23.0116
23.0041
22.9973
22.9915
22.987
22.9841
22.9832
22.9846
22.9886
22.9952
23.0049
23.0175
23.0333
23.0521
23.074
23.0985
23.1256
23.1547
23.1852
23.2164
23.2475
23.2772
23.3044
23.3276
23.345
23.3548
23.3546
23.3419
23.3136
23.2663
23.1958
23.0966
22.962
22.7754
22.5243
22.2196
21.8816
21.5196
21.1275
20.6979
20.2301
19.7252
19.1865
18.6187
18.0278
17.4204
16.8035
16.1837
15.5678
14.9614
14.3698
13.7972
13.2472
12.7226
12.2254
11.7572
11.3188
10.9108
10.5332
10.1856
9.86736
9.57735
9.31432
9.07687
8.8636
8.67304
8.50363
8.35368
8.21959
8.09719
7.98394
7.87825
7.77989
7.68676
7.59815
7.51359
7.4333
7.35868
7.29281
7.24052
7.20727
7.1963
7.20381
7.21364
7.19495
7.10699
6.91112
6.58488
6.1308
5.5759
4.96299
4.33834
3.7411
3.19772
2.72169
2.3166
1.97975
1.70508
1.48496
1.31129
1.17624
1.07264
0.994009
0.934792
0.890508
0.857646
0.833389
0.815486
0.802184
0.792145
0.78436
0.77809
0.772797
0.768101
0.763734
0.759509
0.755291
0.750975
0.746485
0.741696
0.736518
0.730849
0.724754
0.71858
0.713431
0.710009
65.3355
235.633
330.383
314.755
278.753
242.685
210.53
182.655
158.655
138.016
120.267
105.007
91.9011
80.6646
71.055
62.8626
55.9047
50.0206
45.0681
40.9212
37.4678
34.6086
32.2558
30.3321
28.77
27.5108
26.5037
25.7053
25.0785
24.5918
24.2187
23.937
23.7283
23.5771
23.4709
23.3991
23.3532
23.3262
23.3125
23.3075
23.3077
23.3101
23.3125
23.3134
23.3114
23.3057
23.2957
23.2813
23.2622
23.2386
23.2109
23.1791
23.1438
23.1059
23.0661
23.0249
22.9823
22.9383
22.8932
22.8472
22.8008
22.7541
22.7076
22.6615
22.6163
22.5721
22.5293
22.488
22.4484
22.4107
22.3749
22.3408
22.3084
22.2772
22.2468
22.2165
22.1855
22.1529
22.1174
22.0773
22.0309
21.9758
21.9091
21.8268
21.7241
21.594
21.4226
21.1982
20.9268
20.6253
20.3072
19.9695
19.601
19.197
18.7555
18.2772
17.7647
17.2222
16.6555
16.0711
15.4761
14.8775
14.2822
13.6964
13.1257
12.5746
12.047
11.5458
11.0734
10.6313
10.2206
9.84151
9.49415
9.17794
8.89193
8.63481
8.40499
8.2007
8.02011
7.86129
7.72232
7.60143
7.49551
7.40098
7.31581
7.23835
7.16823
7.10383
7.04425
6.9888
6.93721
6.89012
6.84947
6.81872
6.8023
6.80361
6.82128
6.84424
6.8482
6.79732
6.65326
6.3886
5.99779
5.49987
4.93215
4.3389
3.76033
3.22573
2.75185
2.34493
2.00408
1.72437
1.49886
1.31992
1.17998
1.07205
0.989687
0.927385
0.880562
0.845634
0.819711
0.800477
0.786123
0.775264
0.766856
0.760127
0.754517
0.749625
0.74517
0.740955
0.73684
0.732723
0.728531
0.724174
0.719599
0.714768
0.709803
0.705058
0.701476
0.699224
65.6357
275.941
384.171
370.514
332.037
291.794
254.878
222.166
193.51
168.524
146.801
127.965
111.678
97.6418
85.5886
75.2785
66.4959
59.0468
52.7572
47.4711
43.0495
39.3692
36.3211
33.8096
31.7512
30.0734
28.7139
27.619
26.7432
26.0477
25.4998
25.072
24.7413
24.4884
24.2975
24.1552
24.0506
23.9748
23.9203
23.881
23.8521
23.8297
23.8105
23.7919
23.7721
23.7494
23.7228
23.6914
23.6547
23.6125
23.5647
23.5111
23.4522
23.3887
23.3215
23.2504
23.1758
23.0972
23.015
22.9293
22.8405
22.7489
22.6549
22.559
22.4615
22.363
22.2638
22.1645
22.0654
21.9669
21.8695
21.7733
21.6787
21.5855
21.4937
21.403
21.3131
21.2233
21.1328
21.0403
20.9441
20.842
20.7307
20.6049
20.4582
20.2783
20.0563
19.8002
19.5245
19.2415
18.9513
18.6419
18.3036
17.9314
17.5223
17.0761
16.5945
16.0813
15.5417
14.9821
14.4096
13.8315
13.2551
12.6869
12.1331
11.5986
11.0879
10.6042
10.1501
9.7275
9.33742
8.98039
8.6563
8.36451
8.10386
7.87281
7.66947
7.49177
7.33752
7.20449
7.0905
6.99366
6.9111
6.83962
6.77744
6.72303
6.67567
6.63409
6.59733
6.56451
6.53507
6.50912
6.4878
6.47357
6.46993
6.48007
6.504
6.53423
6.55176
6.52568
6.41957
6.20341
5.86557
5.41803
4.89252
4.33047
3.77202
3.24832
2.77873
2.37189
2.02868
1.7453
1.51552
1.33217
1.18796
1.07609
0.990246
0.924971
0.875644
0.838634
0.810995
0.790359
0.77487
0.763102
0.753978
0.746697
0.740676
0.735496
0.730862
0.726566
0.722465
0.718455
0.714467
0.710435
0.70633
0.702156
0.698048
0.694335
0.691793
0.690243
64.8659
319.868
443.658
433.872
393.547
348.954
306.693
268.387
234.272
204.166
177.759
154.713
134.693
117.38
102.473
89.6943
78.7867
69.5158
61.6691
55.0558
49.5054
44.8669
41.0071
37.809
35.171
33.0047
31.234
29.7939
28.6285
27.6907
26.9405
26.344
25.8731
25.504
25.2167
24.9949
24.8247
24.6947
24.5956
24.5195
24.4602
24.4123
24.3716
24.3345
24.2982
24.2604
24.2193
24.1735
24.122
24.0641
23.9994
23.9274
23.8486
23.7632
23.6722
23.575
23.4719
23.3624
23.2466
23.1247
22.9971
22.8639
22.7259
22.5833
22.4368
22.2871
22.1346
21.9802
21.8243
21.6677
21.5111
21.3551
21.2003
21.047
20.8952
20.745
20.5964
20.4493
20.3028
20.1555
20.0057
19.8506
19.6849
19.5023
19.293
19.0536
18.7959
18.533
18.2747
18.022
17.7636
17.4868
17.1833
16.8472
16.4747
16.0646
15.6177
15.137
14.6272
14.0944
13.5456
12.9882
12.4298
11.8777
11.3383
10.8173
10.3196
9.84903
9.4086
9.00045
8.62593
8.28564
7.97948
7.7067
7.46598
7.25555
7.07328
6.9168
6.78367
6.67139
6.57761
6.50028
6.43668
6.38386
6.34018
6.30418
6.2749
6.25136
6.2325
6.21729
6.20496
6.19525
6.18873
6.18709
6.19308
6.20951
6.23713
6.27085
6.29577
6.28553
6.20643
6.02771
5.73349
5.32982
4.84313
4.31155
3.77426
3.26336
2.80014
2.39532
2.05143
1.76581
1.53294
1.3461
1.19832
1.08299
0.993972
0.925886
0.874125
0.835042
0.805657
0.783564
0.766874
0.754127
0.744216
0.736314
0.729817
0.724289
0.719418
0.714988
0.710847
0.706892
0.70305
0.699275
0.695549
0.691896
0.688447
0.685481
0.683634
0.682505
63.2332
367.547
509.695
505.404
463.465
413.987
365.51
320.637
280.114
244.023
212.177
184.282
159.997
138.972
120.858
105.325
92.0618
80.7826
71.2276
63.1637
56.3833
50.7034
45.9629
42.0213
38.7562
36.0619
33.8474
32.0347
30.5573
29.3587
28.3909
27.6135
26.9924
26.499
26.1093
25.8031
25.5637
25.3771
25.2317
25.118
25.0281
24.9552
24.8939
24.8395
24.7883
24.7373
24.6838
24.626
24.5624
24.4917
24.4132
24.3261
24.2306
24.1271
24.016
23.8965
23.7689
23.6323
23.4868
23.3326
23.17
22.9993
22.8211
22.636
22.4447
22.2479
22.0464
21.8409
21.6325
21.4218
21.2101
20.9982
20.7871
20.5772
20.3685
20.1613
19.9559
19.7523
19.5492
19.3442
19.1343
18.9153
18.6821
18.4304
18.1646
17.8966
17.6369
17.3939
17.1682
16.9488
16.7232
16.4812
16.2145
15.9168
15.5837
15.2127
14.8038
14.3588
13.8816
13.3779
12.8545
12.3189
11.779
11.2423
10.7161
10.2067
9.71948
9.25904
8.82887
8.43157
8.06878
7.74128
7.449
7.19111
6.96615
6.77211
6.60663
6.46709
6.35078
6.255
6.17722
6.11526
6.06651
6.02818
5.99865
5.97648
5.96055
5.9503
5.94448
5.94193
5.9417
5.94326
5.9468
5.95345
5.96534
5.9849
6.01319
6.04677
6.07389
6.07216
6.01102
5.8602
5.60118
5.23529
4.78402
4.28194
3.76663
3.27033
2.81563
2.41487
2.07211
1.78577
1.55105
1.3617
1.21106
1.09276
1.00085
0.930093
0.875939
0.834757
0.803557
0.779915
0.76192
0.748087
0.737284
0.728663
0.721598
0.715635
0.710447
0.705806
0.701551
0.697574
0.693801
0.690198
0.686745
0.683473
0.680495
0.678038
0.676621
0.675722
60.9161
419.469
582.779
584.93
540.95
485.529
429.583
376.917
328.894
285.898
247.873
214.553
185.573
160.522
138.984
120.552
104.844
91.5069
80.2216
70.7036
62.7018
55.9962
50.3948
45.7308
41.86
38.6581
36.0188
33.8512
32.0777
30.6328
29.4607
28.5144
27.7541
27.1464
26.6632
26.2811
25.9802
25.7442
25.5593
25.4143
25.2996
25.2074
25.1308
25.0643
25.0032
24.9436
24.8825
24.8173
24.7461
24.6673
24.5797
24.4826
24.3753
24.2587
24.1324
23.9953
23.8477
23.6886
23.5181
23.3363
23.1436
22.9404
22.7274
22.5053
22.2748
22.0369
21.7924
21.5423
21.2875
21.0291
20.7684
20.5068
20.2451
19.9839
19.7231
19.4625
19.2025
18.9421
18.6796
18.4133
18.139
17.8553
17.5673
17.282
17.007
16.7499
16.5172
16.3082
16.1143
15.9259
15.7333
15.5277
15.3011
15.0466
14.7589
14.4344
14.0715
13.6709
13.2354
12.7697
12.2801
11.7739
11.259
10.7434
10.2346
9.73989
9.26544
8.8166
8.39766
8.01182
7.66121
7.34682
7.06867
6.82583
6.61664
6.43881
6.28969
6.16636
6.06586
5.98528
5.9219
5.8734
5.83719
5.81049
5.79158
5.77895
5.77147
5.76906
5.77036
5.77413
5.77936
5.78544
5.79237
5.80104
5.81323
5.83117
5.85612
5.88574
5.91054
5.91131
5.86039
5.72867
5.49612
5.16052
4.73914
4.26313
3.76817
3.28611
2.8402
2.444
2.10281
1.81605
1.57964
1.38783
1.23429
1.11289
1.01791
0.944237
0.887397
0.843785
0.810416
0.784853
0.765167
0.749851
0.737752
0.728001
0.719951
0.713134
0.707208
0.701932
0.697139
0.692715
0.688583
0.684719
0.681104
0.677766
0.6748
0.672393
0.670974
0.669974
57.9315
474.065
661.651
670.552
623.269
560.183
495.069
433.136
376.432
325.649
280.832
241.704
207.826
178.688
153.763
132.539
114.536
99.316
86.4867
75.7022
66.661
59.1018
52.7991
47.5588
43.2143
39.6236
36.6659
34.2382
32.2535
30.6379
29.329
28.274
27.4286
26.7554
26.2228
25.8046
25.4785
25.226
25.0317
24.8828
24.7685
24.6798
24.6092
24.5502
24.4976
24.447
24.395
24.3388
24.2761
24.2049
24.1238
24.032
23.9284
23.8133
23.6858
23.5454
23.3918
23.2245
23.0435
22.8491
22.6419
22.4224
22.1912
21.9492
21.6973
21.4364
21.1674
20.8914
20.6094
20.3225
20.0319
19.7387
19.4439
19.1479
18.8512
18.5538
18.2553
17.9547
17.6536
17.353
17.0541
16.7601
16.4756
16.2061
15.9569
15.7308
15.5276
15.3439
15.1744
15.0126
14.851
14.6817
14.4968
14.2887
14.051
13.7785
13.4683
13.1194
12.7332
12.3131
11.8643
11.3937
10.9089
10.4181
9.92954
9.45127
8.9907
8.55433
8.14754
7.77439
7.43756
7.13831
6.87658
6.65122
6.46017
6.30073
6.16979
6.06408
5.98033
5.91541
5.86644
5.83097
5.80621
5.7889
5.77724
5.76966
5.76531
5.76428
5.76532
5.76736
5.76955
5.77146
5.77322
5.77584
5.78122
5.79177
5.80912
5.83172
5.85151
5.85125
5.80518
5.68494
5.46948
5.15392
4.75243
4.2936
3.81167
3.33816
2.89678
2.50194
2.15982
1.87062
1.63083
1.4351
1.2774
1.1518
1.05271
0.975164
0.914694
0.867741
0.83132
0.802977
0.780756
0.763127
0.748915
0.737229
0.727408
0.718967
0.711553
0.704916
0.698879
0.693323
0.688171
0.683404
0.679019
0.675039
0.671547
0.668697
0.66686
0.665427
54.7863
543.841
753.574
765.2
710.594
636.153
558.78
485.197
418.124
358.482
306.309
261.203
222.548
189.644
161.783
138.291
118.55
102.004
88.169
76.6246
67.0119
59.0254
52.4049
46.9297
42.4133
38.6989
35.6543
33.1685
31.1478
29.5135
28.1994
27.15
26.3186
25.6658
25.159
24.7704
24.4769
24.2591
24.1007
23.9884
23.9109
23.8586
23.8238
23.8
23.7818
23.7648
23.7455
23.7208
23.6882
23.6459
23.5921
23.5258
23.4458
23.3513
23.2414
23.116
22.9749
22.8179
22.6454
22.4576
22.2552
22.0387
21.8089
21.5666
21.3127
21.0481
20.7739
20.491
20.2007
19.9038
19.6014
19.2942
18.9834
18.6708
18.358
18.045
17.7319
17.4196
17.1097
16.8051
16.5072
16.2184
15.9427
15.6839
15.4451
15.2287
15.035
14.8624
14.7073
14.5646
14.4276
14.2884
14.1385
13.9695
13.7736
13.5442
13.2765
12.9681
12.6187
12.2306
11.8083
11.3581
10.8878
10.4063
9.92274
9.44669
8.98704
8.55175
8.14738
7.77881
7.44909
7.15945
6.90953
6.69765
6.52116
6.37675
6.2608
6.16962
6.09962
6.04745
6.01006
5.98501
5.96923
5.95866
5.95159
5.9464
5.94263
5.93932
5.93584
5.93151
5.9258
5.9185
5.91002
5.90169
5.8958
5.89525
5.90225
5.91586
5.92871
5.92425
5.8772
5.75911
5.54804
5.23766
4.84063
4.38456
3.90331
3.42857
2.98443
2.58578
2.23916
1.94502
1.70005
1.49901
1.33599
1.20513
1.10093
1.01853
0.953494
0.9023
0.861957
0.829995
0.804437
0.783733
0.766687
0.752391
0.740168
0.729518
0.720077
0.711582
0.703848
0.696746
0.690195
0.684177
0.678706
0.673821
0.669577
0.666105
0.663729
0.661763
51.862
616.106
845.653
854.317
787.994
699.252
607.954
522.104
444.846
377.096
318.685
268.921
226.888
191.607
162.128
137.579
117.184
100.267
86.2535
74.6575
65.0724
57.1596
50.6368
45.2694
40.8624
37.254
34.3094
31.9164
29.9813
28.4258
27.1843
26.2022
25.4335
24.8398
24.3888
24.0534
23.8111
23.6426
23.532
23.466
23.4333
23.4244
23.4315
23.4482
23.469
23.4896
23.5062
23.5158
23.5159
23.5045
23.4798
23.4406
23.3856
23.3131
23.2222
23.1132
22.9864
22.8417
22.6795
22.5002
22.3044
22.0926
21.8656
21.6241
21.369
21.1014
20.8222
20.5324
20.2331
19.9251
19.6091
19.2859
18.9569
18.6242
18.2894