/*--------------------------------*- C++ -*----------------------------------*\
  =========                 |
  \\      /  F ield         | OpenFOAM: The Open Source CFD Toolbox
   \\    /   O peration     | Website:  https://openfoam.org
    \\  /    A nd           | Version:  9
     \\/     M anipulation  |
\*---------------------------------------------------------------------------*/
FoamFile
{
    format      ascii;
    class       volScalarField;
    location    "0.1";
    object      k;
}
// * * * * * * * * * * * * * * * * * * * * * * * * * * * * * * * * * * * * * //

dimensions      [0 2 -2 0 0 0 0];

internalField   nonuniform List<scalar> 
12225
(
0.338204
0.309242
0.28296
0.258132
0.235892
0.217451
0.202777
0.191425
0.182952
0.17703
0.173501
0.172444
0.17432
0.180319
0.193314
0.220981
0.291491
0.687211
0.391448
0.432963
0.496093
0.525105
0.532645
0.529836
0.522162
0.512721
0.503521
0.496067
0.491716
0.492023
0.499261
0.517507
0.555353
0.634606
0.849087
1.68387
0.446067
0.591326
0.802923
0.943149
1.01758
1.0473
1.04973
1.03836
1.02232
1.00748
0.997873
0.996886
1.0086
1.03988
1.10491
1.23712
1.53983
2.46332
0.456851
0.541036
0.68017
0.793157
0.867162
0.907385
0.923384
0.925097
0.920432
0.915147
0.913555
0.919478
0.937438
0.974519
1.0438
1.17156
1.40874
1.9419
0.474333
0.507643
0.55397
0.603986
0.644339
0.670826
0.684922
0.690731
0.69257
0.694204
0.698906
0.709904
0.731107
0.76821
0.830358
0.932857
1.09281
1.3444
0.490214
0.509504
0.502801
0.506321
0.513972
0.521096
0.525608
0.528023
0.529948
0.533328
0.540236
0.552989
0.574467
0.608584
0.660781
0.738722
0.843215
0.96441
0.495708
0.519247
0.493094
0.472869
0.458758
0.450215
0.444857
0.441723
0.440909
0.443126
0.449464
0.461342
0.48057
0.509441
0.550708
0.6076
0.67367
0.734801
0.491418
0.522151
0.49549
0.468621
0.443948
0.426004
0.413726
0.406005
0.402317
0.402667
0.407442
0.417311
0.433169
0.45605
0.486972
0.52669
0.566119
0.597115
0.483576
0.518679
0.499187
0.475214
0.448164
0.426585
0.411124
0.401108
0.39588
0.395063
0.398547
0.406406
0.418803
0.43586
0.457503
0.483059
0.503066
0.515501
0.47864
0.519311
0.509143
0.490183
0.463848
0.441648
0.425577
0.415261
0.409873
0.408678
0.411135
0.416845
0.425448
0.436489
0.449298
0.462385
0.466911
0.464302
0.500357
0.536679
0.524178
0.504351
0.47717
0.454905
0.439189
0.429024
0.423023
0.420039
0.419261
0.420134
0.422244
0.425182
0.428456
0.430715
0.42547
0.416679
0.521383
0.544526
0.52526
0.507816
0.485919
0.468397
0.454998
0.444036
0.434135
0.424495
0.414817
0.40517
0.395883
0.387466
0.380592
0.375361
0.369526
0.373918
0.528922
0.538199
0.525363
0.525728
0.521255
0.514756
0.505507
0.492919
0.4771
0.458657
0.438514
0.417803
0.39782
0.379995
0.365916
0.356382
0.355048
0.36686
0.518214
0.511067
0.504267
0.514541
0.522918
0.524886
0.519423
0.507065
0.489261
0.467788
0.444468
0.421079
0.399311
0.380768
0.367044
0.35814
0.360692
0.373616
0.489279
0.478836
0.467731
0.460573
0.45589
0.451398
0.444719
0.434963
0.422446
0.408126
0.393223
0.378992
0.366599
0.357095
0.351589
0.348506
0.355003
0.365283
0.456703
0.459973
0.458067
0.440802
0.42536
0.412345
0.400871
0.390143
0.379895
0.370276
0.36167
0.354542
0.349331
0.346466
0.34662
0.346677
0.354974
0.361072
0.423045
0.442918
0.457341
0.440294
0.423237
0.407768
0.394391
0.383001
0.373452
0.365679
0.35969
0.355511
0.353146
0.352669
0.354533
0.354375
0.362178
0.363366
0.394293
0.423908
0.450386
0.435579
0.420076
0.405758
0.393509
0.383469
0.375527
0.36951
0.365241
0.362538
0.361216
0.361225
0.362971
0.361349
0.367561
0.364309
0.377296
0.405154
0.433793
0.421123
0.408741
0.397853
0.388925
0.381852
0.376369
0.372201
0.369107
0.36688
0.365342
0.364492
0.364791
0.361099
0.364241
0.357269
0.376599
0.388078
0.402226
0.392339
0.384458
0.378404
0.373751
0.369899
0.366419
0.363078
0.359783
0.356522
0.353326
0.350361
0.348139
0.342844
0.341827
0.33435
0.380386
0.38071
0.384072
0.375619
0.368992
0.363598
0.358833
0.354146
0.349284
0.344206
0.339001
0.333814
0.328805
0.324198
0.320476
0.314949
0.31252
0.306209
0.384296
0.378909
0.376122
0.369442
0.363224
0.357132
0.350842
0.344101
0.336941
0.329532
0.322118
0.314946
0.308245
0.302258
0.297407
0.291925
0.288703
0.283397
0.388652
0.381413
0.375204
0.369706
0.362666
0.354675
0.345944
0.336679
0.327182
0.317752
0.308666
0.300172
0.292476
0.285778
0.280399
0.275332
0.271686
0.267205
0.394737
0.388971
0.3803
0.372932
0.362768
0.351636
0.34014
0.328674
0.317565
0.307076
0.297399
0.288687
0.281077
0.274698
0.269774
0.26591
0.262719
0.259367
0.402573
0.398782
0.38645
0.374263
0.360475
0.347102
0.334441
0.322618
0.311745
0.301928
0.293253
0.285791
0.279638
0.274896
0.271755
0.270328
0.269084
0.267728
0.407784
0.403298
0.389512
0.375899
0.363385
0.352342
0.34231
0.333154
0.324905
0.317668
0.311573
0.306728
0.303272
0.301398
0.301385
0.303876
0.306667
0.308811
0.403402
0.399738
0.39953
0.397921
0.396546
0.394342
0.390998
0.386923
0.382701
0.378886
0.375917
0.374198
0.373952
0.375547
0.379472
0.387047
0.396317
0.403935
0.390203
0.39846
0.430364
0.450215
0.462425
0.468476
0.470057
0.469052
0.466955
0.464924
0.463851
0.464336
0.466889
0.471811
0.479716
0.492483
0.510259
0.525367
0.370659
0.362522
0.372042
0.370641
0.364928
0.357493
0.349621
0.342195
0.335823
0.330932
0.327883
0.326958
0.328421
0.332473
0.339534
0.350834
0.368672
0.388263
0.348365
0.317853
0.290397
0.265071
0.242206
0.22212
0.204766
0.189927
0.177351
0.166801
0.158063
0.150954
0.145318
0.141072
0.138215
0.13685
0.137923
0.144788
0.0496393
0.0905646
0.112656
0.126409
0.135377
0.141441
0.145725
0.148955
0.151704
0.15436
0.157195
0.160375
0.163929
0.167717
0.171404
0.174655
0.177647
0.180806
0.188052
0.19489
0.201408
0.207302
0.212094
0.216816
0.221944
0.227478
0.232215
0.233767
0.234655
0.236083
0.237798
0.240799
0.244888
0.249886
0.255631
0.26198
0.268808
0.276004
0.283476
0.291145
0.298947
0.30683
0.314752
0.322683
0.330602
0.338495
0.346498
0.354695
0.363068
0.371611
0.380339
0.389258
0.398302
0.40739
0.416495
0.425601
0.434707
0.443819
0.452945
0.462095
0.471278
0.480503
0.489773
0.499091
0.508454
0.517856
0.527283
0.536718
0.546136
0.555505
0.564784
0.573924
0.582864
0.591534
0.599851
0.607719
0.615029
0.621657
0.627464
0.632296
0.635987
0.638357
0.639215
0.638368
0.635626
0.631274
0.626219
0.620199
0.612987
0.604542
0.594608
0.589358
0.587236
0.58321
0.577281
0.569743
0.560926
0.551112
0.540534
0.529389
0.517845
0.506134
0.49447
0.482844
0.471272
0.459783
0.448417
0.437212
0.426209
0.415444
0.404944
0.39473
0.384817
0.375208
0.365897
0.356874
0.348117
0.339598
0.331242
0.309958
0.292783
0.277673
0.264224
0.252186
0.241313
0.231387
0.222227
0.213697
0.205703
0.198198
0.191176
0.184644
0.178569
0.172779
0.166873
0.160192
0.151954
0.14156
0.128946
0.114727
0.0999801
0.0857946
0.0729405
0.0617966
0.052443
0.0447817
0.0386262
0.0337581
0.0299592
0.0270289
0.024792
0.0231007
0.0218334
0.0208923
0.020201
0.0196979
0.0193321
0.0190635
0.0188613
0.0187029
0.0185717
0.0184562
0.0183484
0.0182432
0.0181375
0.0180299
0.0179196
0.0178068
0.0176919
0.0175754
0.0174579
0.01734
0.0172231
0.0171088
0.0169974
0.0168888
0.0167829
0.0166818
0.0165954
0.0166194
0.101324
0.1767
0.222242
0.244948
0.255614
0.260699
0.26329
0.265297
0.267788
0.270925
0.275031
0.280088
0.285952
0.291573
0.296515
0.301346
0.306139
0.311582
0.318508
0.327374
0.338431
0.351294
0.366051
0.383909
0.404212
0.42475
0.443967
0.459035
0.476886
0.498375
0.520352
0.540953
0.559939
0.577476
0.593872
0.609474
0.624612
0.639569
0.654572
0.669794
0.685366
0.701379
0.717918
0.735055
0.752818
0.771217
0.7901
0.809405
0.829211
0.849603
0.870551
0.892056
0.913933
0.936088
0.958549
0.981375
1.00463
1.02833
1.0525
1.07715
1.10228
1.12787
1.15392
1.18039
1.20725
1.23444
1.26192
1.28959
1.31736
1.34511
1.37269
1.39996
1.4267
1.45269
1.47767
1.50136
1.52341
1.54346
1.56109
1.57585
1.58726
1.59479
1.5979
1.59604
1.58866
1.57474
1.55295
1.52352
1.48693
1.44669
1.40147
1.36175
1.3336
1.30695
1.28184
1.25604
1.2284
1.19838
1.16584
1.13098
1.09414
1.05569
1.01604
0.975811
0.935528
0.895624
0.856443
0.818251
0.781241
0.74554
0.711225
0.678322
0.646822
0.616678
0.587817
0.560177
0.533611
0.50795
0.482941
0.457718
0.433496
0.409423
0.38816
0.368824
0.351131
0.334903
0.319832
0.305652
0.292206
0.279436
0.267383
0.256125
0.245686
0.235905
0.226337
0.216251
0.204799
0.191326
0.175673
0.158299
0.140139
0.122304
0.105783
0.0912333
0.0789334
0.0688603
0.0608142
0.0545178
0.0496766
0.0460126
0.0432801
0.0412718
0.039818
0.0387832
0.0380592
0.0375679
0.0372425
0.037031
0.036893
0.0367995
0.03673
0.0366706
0.0366126
0.0365505
0.0364819
0.0364063
0.0363248
0.0362391
0.036152
0.0360667
0.0359871
0.0359176
0.0358625
0.0358353
0.0358504
0.0359365
0.0361587
0.0367064
0.0382713
0.0452588
0.162402
0.248634
0.300521
0.32036
0.325384
0.324705
0.322229
0.32004
0.318669
0.318319
0.319526
0.322285
0.325916
0.330621
0.336448
0.343371
0.351789
0.361722
0.372988
0.38513
0.397583
0.410019
0.422214
0.434396
0.446696
0.457315
0.466022
0.472831
0.482471
0.494812
0.510494
0.528592
0.548572
0.569932
0.59227
0.61527
0.638692
0.662353
0.68611
0.709849
0.733474
0.756898
0.780047
0.802859
0.825315
0.847407
0.869126
0.890465
0.911434
0.932054
0.952277
0.972083
0.991279
1.01009
1.02864
1.0471
1.06561
1.08426
1.10311
1.1222
1.14155
1.16117
1.18106
1.20122
1.22163
1.24226
1.2631
1.28411
1.30525
1.32649
1.34776
1.36901
1.39019
1.41121
1.43201
1.4525
1.47261
1.49225
1.51133
1.52979
1.54755
1.56455
1.58077
1.59619
1.61086
1.62481
1.63808
1.65078
1.66263
1.67333
1.67834
1.66744
1.6378
1.59569
1.5468
1.49441
1.44076
1.38705
1.33398
1.28192
1.23109
1.18163
1.13363
1.08716
1.0423
0.99908
0.957547
0.917714
0.879578
0.84312
0.808299
0.775056
0.743312
0.712967
0.683887
0.655858
0.628666
0.60197
0.575371
0.547919
0.52374
0.499646
0.477367
0.454938
0.433072
0.412013
0.391947
0.372884
0.354802
0.337702
0.321651
0.306775
0.293185
0.280829
0.269322
0.257873
0.245424
0.230991
0.214076
0.194906
0.174363
0.153673
0.134042
0.116393
0.101235
0.088689
0.0786011
0.0706758
0.0645668
0.0599352
0.0564777
0.0539388
0.0521097
0.0508232
0.0499464
0.0493773
0.0490211
0.0488043
0.0486716
0.0485821
0.0485047
0.0484175
0.0483065
0.0481634
0.0479847
0.0477702
0.0475218
0.0472424
0.0469354
0.0466037
0.0462496
0.0458738
0.0454753
0.0450518
0.0445951
0.0440924
0.0435275
0.0428945
0.0423112
0.0432523
0.227142
0.325968
0.388004
0.400857
0.394062
0.381923
0.369961
0.359834
0.352126
0.347269
0.344956
0.344808
0.346669
0.350269
0.355226
0.361132
0.3676
0.374286
0.380891
0.387247
0.393356
0.39939
0.405691
0.412649
0.420459
0.428845
0.437598
0.447422
0.459276
0.473667
0.490449
0.509211
0.529485
0.550786
0.572671
0.594754
0.616724
0.638341
0.659433
0.679889
0.699642
0.718681
0.737004
0.754634
0.771607
0.787971
0.803777
0.819079
0.833928
0.848368
0.862437
0.876092
0.889315
0.902182
0.914784
0.927243
0.939656
0.952092
0.964597
0.977199
0.989918
1.00276
1.01573
1.02882
1.04201
1.0553
1.06866
1.08207
1.09549
1.1089
1.12226
1.13551
1.14863
1.16155
1.17423
1.1866
1.19862
1.21021
1.22132
1.23191
1.24191
1.25129
1.26002
1.26808
1.27547
1.28221
1.28828
1.29363
1.29787
1.30029
1.29954
1.29297
1.27944
1.25994
1.23534
1.20692
1.17595
1.14336
1.10982
1.07582
1.04171
1.00779
0.974266
0.941308
0.909056
0.877618
0.847082
0.817511
0.788949
0.761422
0.734935
0.709476
0.685013
0.661494
0.638846
0.616967
0.595724
0.574935
0.554446
0.534378
0.515503
0.498075
0.480812
0.462797
0.444356
0.425738
0.40721
0.388922
0.370985
0.353517
0.336685
0.32072
0.305878
0.292317
0.279924
0.268181
0.256208
0.243012
0.227843
0.210487
0.191345
0.171325
0.151579
0.133202
0.116984
0.103304
0.092188
0.0834263
0.0766995
0.0716575
0.0679675
0.0653373
0.0635225
0.062326
0.0615867
0.0611841
0.0610002
0.060945
0.0609548
0.0609839
0.0609967
0.0609689
0.0608857
0.0607394
0.0605284
0.0602548
0.0599234
0.0595396
0.0591092
0.0586367
0.0581245
0.0575727
0.0569751
0.0563236
0.0555909
0.0547327
0.0536727
0.0522818
0.0504148
0.04853
0.294337
0.410093
0.489839
0.492294
0.468576
0.441743
0.41867
0.40059
0.387523
0.378711
0.373268
0.370557
0.370025
0.37113
0.373345
0.376186
0.379266
0.382348
0.385389
0.388536
0.392083
0.396403
0.401866
0.408741
0.417111
0.426857
0.437825
0.45005
0.463677
0.478732
0.495034
0.512301
0.530218
0.548478
0.566804
0.584951
0.602718
0.619953
0.636549
0.652445
0.667622
0.682081
0.695845
0.708954
0.721455
0.733403
0.744853
0.75586
0.766475
0.776739
0.786705
0.796348
0.805675
0.814705
0.82351
0.832162
0.840734
0.849277
0.857826
0.866406
0.87503
0.883707
0.892438
0.901218
0.910038
0.918885
0.92774
0.936582
0.945385
0.954119
0.962749
0.971237
0.979542
0.987618
0.995416
1.00288
1.00997
1.01661
1.02276
1.02836
1.03336
1.03771
1.04137
1.04429
1.04644
1.04779
1.04827
1.04778
1.04604
1.04261
1.0371
1.02934
1.01933
1.007
0.992046
0.974712
0.955456
0.934712
0.912857
0.890217
0.867067
0.84364
0.820134
0.796719
0.773537
0.750706
0.728326
0.706478
0.685222
0.664607
0.644661
0.6254
0.606822
0.588911
0.571635
0.554944
0.538778
0.523065
0.507794
0.493268
0.479922
0.467492
0.455087
0.442102
0.428446
0.414222
0.399564
0.384593
0.369408
0.354129
0.338923
0.324036
0.309771
0.296408
0.284051
0.272465
0.261025
0.248859
0.235152
0.219456
0.201848
0.182925
0.163658
0.145143
0.128318
0.113774
0.101712
0.0920394
0.084499
0.0787722
0.0745354
0.0714905
0.0693778
0.0679807
0.0671219
0.0666498
0.0664404
0.0663875
0.0664205
0.0664883
0.0665501
0.0665767
0.0665491
0.0664565
0.066295
0.066065
0.0657703
0.0654162
0.0650083
0.0645514
0.0640485
0.0634997
0.0629001
0.0622357
0.0614791
0.0605808
0.0594615
0.0579976
0.0560759
0.0539886
0.363952
0.497867
0.60872
0.597366
0.552748
0.50904
0.473755
0.447367
0.428463
0.415316
0.406549
0.401085
0.398045
0.396703
0.396468
0.396904
0.397755
0.398966
0.400658
0.403075
0.406508
0.41122
0.417398
0.42512
0.434344
0.444933
0.456707
0.469506
0.483198
0.497639
0.512654
0.528045
0.543609
0.559156
0.574516
0.589545
0.604124
0.618165
0.631607
0.644415
0.65658
0.668107
0.679021
0.689355
0.699148
0.708448
0.717299
0.725748
0.733838
0.741606
0.749101
0.756319
0.763275
0.769983
0.776494
0.782854
0.789114
0.795316
0.801488
0.80765
0.813818
0.819999
0.826196
0.832407
0.838626
0.844843
0.851042
0.857207
0.863315
0.869339
0.875251
0.881017
0.886598
0.891954
0.897041
0.90181
0.906211
0.910193
0.9137
0.916679
0.919075
0.920834
0.921902
0.922227
0.921755
0.920424
0.918154
0.914847
0.910331
0.904261
0.89654
0.887552
0.877601
0.866537
0.854043
0.840107
0.824892
0.808595
0.791427
0.773592
0.755283
0.736676
0.717931
0.699191
0.680578
0.662199
0.644144
0.626489
0.609293
0.592604
0.576455
0.560868
0.545851
0.531403
0.517509
0.504144
0.491279
0.478888
0.466996
0.455767
0.445397
0.435794
0.426394
0.41672
0.406506
0.395746
0.384445
0.372649
0.360396
0.347749
0.33482
0.321799
0.308951
0.296572
0.284875
0.27383
0.263057
0.251865
0.239474
0.225305
0.2092
0.191495
0.172956
0.154604
0.137445
0.122227
0.10932
0.0987531
0.0903451
0.0838215
0.0788858
0.0752526
0.0726623
0.0708885
0.0697422
0.0690517
0.0686847
0.0685206
0.0684798
0.0685053
0.0685506
0.0685815
0.0685746
0.068515
0.0683952
0.0682129
0.0679694
0.0676684
0.0673143
0.0669112
0.0664618
0.0659661
0.0654208
0.0648108
0.0641133
0.0632856
0.0622679
0.0609821
0.0594007
0.0577823
0.436982
0.587016
0.743025
0.712281
0.642485
0.579715
0.531782
0.497113
0.472566
0.455433
0.443671
0.435766
0.430588
0.427299
0.425312
0.424271
0.424025
0.424592
0.426105
0.428742
0.432672
0.438012
0.444809
0.453031
0.462578
0.473299
0.485007
0.497508
0.510615
0.524149
0.537943
0.551839
0.565693
0.579373
0.592767
0.605778
0.618332
0.630371
0.641856
0.652763
0.663088
0.672835
0.682023
0.690676
0.698826
0.706508
0.713759
0.720618
0.72712
0.733301
0.739199
0.744828
0.750206
0.755356
0.760315
0.765118
0.769797
0.774387
0.778912
0.783391
0.787838
0.792263
0.79667
0.801061
0.805432
0.809778
0.814087
0.818348
0.822542
0.82665
0.830645
0.834501
0.838185
0.841662
0.844892
0.847835
0.850443
0.85267
0.854465
0.855777
0.85655
0.856729
0.856259
0.855079
0.853129
0.850338
0.846624
0.841908
0.836022
0.828633
0.819715
0.809854
0.799388
0.788131
0.775898
0.762673
0.748536
0.733609
0.718032
0.701957
0.685534
0.668909
0.652218
0.635582
0.619111
0.602899
0.587026
0.571559
0.55655
0.542042
0.528065
0.514638
0.501771
0.489464
0.477705
0.466478
0.455762
0.445542
0.435829
0.426693
0.418196
0.410254
0.402547
0.394784
0.386724
0.378246
0.369293
0.359855
0.349917
0.339486
0.328613
0.317416
0.306093
0.294899
0.284072
0.273703
0.263606
0.25328
0.242032
0.229229
0.214538
0.198075
0.180407
0.162441
0.145189
0.129508
0.115918
0.10458
0.0953918
0.0881253
0.0825116
0.0782829
0.0751873
0.0729967
0.0715146
0.07056
0.0699879
0.0696688
0.0695117
0.0694536
0.069443
0.0694411
0.0694204
0.0693627
0.069257
0.0690986
0.0688865
0.0686226
0.0683098
0.0679515
0.0675497
0.0671045
0.0666133
0.0660631
0.0654359
0.0646993
0.0638159
0.0627497
0.0615334
0.0603773
0.515237
0.67488
0.884657
0.829397
0.731501
0.649782
0.589993
0.547719
0.518106
0.497442
0.483081
0.473153
0.466338
0.461722
0.458714
0.456979
0.45638
0.45691
0.458632
0.461631
0.465969
0.471671
0.478709
0.487008
0.496448
0.506878
0.518125
0.530006
0.542343
0.554967
0.567725
0.580482
0.593117
0.605527
0.617625
0.629338
0.640608
0.651391
0.661655
0.671382
0.680563
0.689202
0.697309
0.704902
0.712002
0.718638
0.724838
0.730632
0.736052
0.741129
0.745895
0.750369
0.754574
0.75854
0.762297
0.765875
0.769295
0.772587
0.77577
0.778863
0.78188
0.784832
0.787725
0.790564
0.79335
0.796081
0.798753
0.801357
0.803881
0.80631
0.808627
0.81081
0.812834
0.81467
0.816287
0.817648
0.818715
0.819447
0.819799
0.819724
0.81917
0.818086
0.816415
0.814097
0.811067
0.807254
0.80257
0.796938
0.790099
0.781747
0.772073
0.76163
0.750649
0.738979
0.726495
0.713219
0.699217
0.68459
0.669458
0.653954
0.638214
0.622373
0.606555
0.590877
0.57544
0.560334
0.54563
0.53139
0.517662
0.50448
0.491871
0.479849
0.468421
0.457581
0.447318
0.437612
0.428439
0.419776
0.411615
0.403964
0.396816
0.390101
0.383613
0.377119
0.370458
0.363523
0.356202
0.348455
0.340236
0.331515
0.322296
0.312638
0.302671
0.292595
0.282629
0.272925
0.263431
0.253818
0.243509
0.231871
0.218452
0.203182
0.186446
0.169016
0.151868
0.135921
0.121819
0.109849
0.100003
0.0920971
0.0858887
0.0811245
0.0775615
0.0749741
0.0731623
0.0719426
0.0711581
0.0706717
0.0703841
0.0702253
0.0701397
0.0700845
0.0700285
0.0699503
0.0698368
0.0696807
0.0694793
0.069233
0.0689436
0.0686135
0.0682445
0.0678364
0.0673878
0.0668881
0.0663245
0.0656745
0.0649187
0.0640508
0.0631316
0.0623119
0.601006
0.762907
1.02349
0.939386
0.815693
0.71761
0.647504
0.598518
0.56439
0.540578
0.523951
0.512364
0.504346
0.498905
0.495402
0.493459
0.49288
0.493585
0.495558
0.498801
0.503311
0.509064
0.516003
0.524043
0.53307
0.542949
0.553528
0.564649
0.576157
0.587903
0.59975
0.611577
0.623278
0.63476
0.645946
0.656771
0.667181
0.677136
0.686605
0.695566
0.704009
0.711929
0.71933
0.726222
0.732619
0.738539
0.744006
0.749041
0.75367
0.757919
0.761817
0.765383
0.768642
0.771625
0.774362
0.77688
0.779196
0.78133
0.783303
0.78513
0.786827
0.788405
0.789875
0.791243
0.792516
0.793695
0.794781
0.795772
0.796661
0.797442
0.798102
0.798629
0.799004
0.799207
0.799214
0.798998
0.798528
0.79777
0.796687
0.795238
0.793379
0.791062
0.788232
0.784832
0.780795
0.776041
0.770475
0.763942
0.75612
0.746873
0.736633
0.725849
0.71453
0.702529
0.689802
0.676379
0.662323
0.64773
0.632715
0.617408
0.601942
0.586451
0.571061
0.555888
0.541034
0.526585
0.512615
0.499181
0.486327
0.474084
0.462474
0.451508
0.441184
0.431494
0.422419
0.413933
0.406003
0.398596
0.39168
0.385227
0.379197
0.373524
0.368053
0.362599
0.357029
0.351254
0.345162
0.338695
0.331794
0.324405
0.316503
0.308104
0.299284
0.29019
0.281009
0.271911
0.262934
0.253886
0.244316
0.23363
0.221311
0.207142
0.191337
0.174534
0.157641
0.141599
0.127143
0.114676
0.104285
0.0958427
0.0891307
0.0839065
0.0799336
0.0769897
0.0748734
0.0734022
0.0724117
0.0717584
0.0713367
0.0710709
0.0709014
0.0707817
0.0706775
0.070565
0.0704287
0.0702597
0.0700539
0.0698103
0.0695298
0.0692142
0.0688649
0.0684822
0.068065
0.067606
0.0670964
0.0665224
0.0658777
0.0651726
0.0644761
0.0638835
0.695827
0.858854
1.14642
1.03872
0.895668
0.784248
0.705231
0.650221
0.611922
0.58516
0.566431
0.55337
0.544373
0.538352
0.534584
0.532603
0.532122
0.532972
0.535059
0.538328
0.542737
0.548244
0.554791
0.562302
0.570683
0.579822
0.589594
0.599868
0.610511
0.621394
0.632395
0.643404
0.65432
0.665056
0.675537
0.685698
0.695484
0.704853
0.713769
0.722206
0.730147
0.73758
0.744501
0.750912
0.756819
0.762232
0.767165
0.771636
0.775662
0.779264
0.782467
0.785286
0.787748
0.789882
0.791719
0.793283
0.794588
0.795649
0.796485
0.797112
0.797544
0.797796
0.797879
0.797804
0.797581
0.797216
0.796715
0.796081
0.795316
0.79442
0.793387
0.792213
0.790889
0.789402
0.787737
0.785875
0.783796
0.781474
0.778881
0.775983
0.772743
0.769119
0.765059
0.760504
0.755383
0.749597
0.743026
0.735361
0.726399
0.716403
0.70581
0.694828
0.683339
0.671198
0.658393
0.644944
0.630912
0.616387
0.601484
0.586332
0.571067
0.555827
0.540741
0.525932
0.511505
0.497552
0.484147
0.471346
0.459195
0.447723
0.436948
0.426876
0.417501
0.408808
0.400771
0.393355
0.386515
0.380207
0.374381
0.368984
0.363961
0.359242
0.354698
0.350171
0.34555
0.340741
0.335667
0.330248
0.324416
0.318111
0.311288
0.303933
0.296085
0.287844
0.279366
0.270815
0.262286
0.253688
0.244688
0.234762
0.223367
0.21018
0.195269
0.179135
0.162607
0.146612
0.131945
0.119105
0.108273
0.0993844
0.0922496
0.0866362
0.0823111
0.0790541
0.076663
0.0749583
0.0737703
0.0729546
0.0723992
0.0720238
0.0717653
0.0715742
0.0714136
0.0712574
0.0710884
0.0708961
0.0706752
0.0704238
0.0701419
0.0698309
0.069492
0.0691256
0.0687315
0.0683049
0.0678407
0.0673317
0.0667797
0.0662032
0.0656686
0.0652265
0.800419
0.965271
1.25632
1.13313
0.974929
0.852275
0.765322
0.70466
0.662264
0.6325
0.611581
0.596959
0.586903
0.58022
0.576081
0.573912
0.573325
0.574065
0.575972
0.578949
0.582937
0.587891
0.593767
0.600508
0.608043
0.616287
0.62514
0.634494
0.644235
0.654251
0.664431
0.674671
0.684876
0.694959
0.704843
0.714461
0.723753
0.732672
0.741175
0.74923
0.756812
0.763902
0.770486
0.776559
0.782118
0.787164
0.791705
0.795748
0.799307
0.802395
0.805032
0.807229
0.809012
0.810407
0.811447
0.812147
0.812526
0.81259
0.812359
0.811846
0.811068
0.810039
0.808773
0.807286
0.805588
0.803693
0.80161
0.799349
0.796918
0.794323
0.79157
0.78866
0.785593
0.782365
0.778971
0.7754
0.77164
0.767678
0.76349
0.759053
0.754336
0.7493
0.743894
0.738049
0.731677
0.724652
0.71672
0.707684
0.697722
0.687225
0.676499
0.665498
0.654003
0.641927
0.629236
0.61594
0.602089
0.587769
0.573087
0.558174
0.543167
0.528209
0.513438
0.498981
0.484953
0.471451
0.458553
0.446321
0.4348
0.424022
0.414001
0.40474
0.396231
0.388449
0.381361
0.374921
0.369076
0.363767
0.35893
0.354499
0.350403
0.346573
0.342891
0.339215
0.335448
0.331503
0.327307
0.322781
0.317855
0.312463
0.306548
0.300078
0.293063
0.28557
0.277722
0.269672
0.26154
0.253312
0.244758
0.235429
0.224795
0.212464
0.198383
0.182929
0.166837
0.151005
0.136254
0.123159
0.111982
0.102726
0.0952374
0.0892952
0.0846691
0.0811392
0.0785024
0.0765818
0.0752065
0.0742333
0.0735449
0.073058
0.0727067
0.0724388
0.0722153
0.0720083
0.0717992
0.071576
0.0713325
0.0710657
0.0707752
0.0704618
0.0701265
0.0697701
0.0693929
0.0689921
0.0685658
0.0681112
0.067635
0.0671582
0.0667399
0.0663978
0.915547
1.07764
1.36346
1.22848
1.05817
0.925694
0.831218
0.764803
0.717971
0.684771
0.661197
0.644547
0.632967
0.625149
0.620153
0.6173
0.616106
0.61624
0.61749
0.619733
0.6229
0.626952
0.631858
0.637583
0.644078
0.651278
0.659104
0.667464
0.676261
0.685391
0.694752
0.704244
0.713773
0.723251
0.732597
0.741738
0.750611
0.759159
0.767335
0.775097
0.782413
0.789255
0.795601
0.801436
0.806749
0.811533
0.815787
0.819511
0.822711
0.825394
0.827574
0.829257
0.830468
0.831229
0.83157
0.831503
0.831045
0.830197
0.828978
0.827402
0.825484
0.823239
0.820686
0.817839
0.814716
0.811332
0.807702
0.803843
0.799767
0.79549
0.791023
0.786378
0.781563
0.776582
0.771436
0.766125
0.760646
0.754994
0.749153
0.743103
0.736818
0.730259
0.723364
0.71604
0.708167
0.69952
0.689962
0.679713
0.669129
0.658505
0.647867
0.636986
0.625678
0.613851
0.601456
0.588488
0.574986
0.561023
0.546701
0.532145
0.517495
0.502897
0.488495
0.474425
0.460811
0.447757
0.435351
0.423658
0.41273
0.402598
0.393279
0.384772
0.377064
0.370124
0.363911
0.358368
0.353433
0.349034
0.345096
0.341541
0.338292
0.335275
0.332378
0.329472
0.32647
0.32329
0.31986
0.316106
0.311958
0.307345
0.302203
0.296489
0.290193
0.283355
0.27607
0.268477
0.260707
0.252795
0.244594
0.235734
0.225719
0.21412
0.200792
0.186003
0.170393
0.154812
0.140089
0.126846
0.115417
0.105868
0.0980846
0.0918648
0.0869812
0.0832134
0.0803578
0.078238
0.0766862
0.0755598
0.074739
0.0741387
0.0736908
0.0733412
0.0730492
0.0727856
0.0725302
0.0722702
0.0719981
0.0717105
0.071406
0.0710851
0.0707487
0.0703976
0.0700326
0.0696527
0.0692578
0.0688484
0.0684331
0.0680326
0.0676976
0.0674225
1.04235
1.19727
1.47466
1.33211
1.15182
1.00995
0.907505
0.834507
0.78227
0.744633
0.717416
0.697771
0.683718
0.673834
0.667074
0.662664
0.66004
0.658814
0.658733
0.659651
0.661492
0.664222
0.667818
0.672258
0.677506
0.683509
0.690199
0.697495
0.705304
0.71353
0.722073
0.730833
0.739713
0.748622
0.757473
0.766189
0.774699
0.782937
0.79085
0.798388
0.80551
0.812179
0.818366
0.824046
0.829198
0.833808
0.837865
0.841362
0.844299
0.846675
0.848498
0.849769
0.85051
0.850741
0.85049
0.849758
0.848564
0.846905
0.844796
0.842251
0.839285
0.835916
0.832161
0.82804
0.823572
0.818777
0.813675
0.808287
0.802632
0.796731
0.790605
0.784274
0.777755
0.771058
0.764189
0.757154
0.749961
0.74261
0.73509
0.727374
0.719436
0.711221
0.702631
0.693553
0.683809
0.673374
0.662551
0.651669
0.640981
0.630544
0.620142
0.609534
0.59857
0.587144
0.575197
0.562709
0.549702
0.536237
0.522404
0.508323
0.49413
0.479974
0.466004
0.452366
0.439192
0.426596
0.414674
0.403502
0.393136
0.383611
0.374945
0.367137
0.360167
0.353999
0.348583
0.343853
0.339736
0.336149
0.333009
0.330229
0.327726
0.325423
0.323214
0.320978
0.318636
0.31611
0.313329
0.310227
0.306732
0.302772
0.298278
0.293197
0.287507
0.281228
0.274433
0.267246
0.259797
0.252155
0.244235
0.23574
0.226221
0.215237
0.20258
0.188422
0.173315
0.158053
0.143451
0.13016
0.118566
0.108794
0.100773
0.0943207
0.0892177
0.0852439
0.0821944
0.0798932
0.0781756
0.0769009
0.0759489
0.0752335
0.0746857
0.0742499
0.0738845
0.0735589
0.0732522
0.0729504
0.0726453
0.0723325
0.0720102
0.0716783
0.0713375
0.0709886
0.0706326
0.0702698
0.0699012
0.0695293
0.069163
0.0688207
0.0685454
0.068316
1.18139
1.32841
1.59944
1.45287
1.26331
1.1111
0.999096
0.917738
0.858305
0.814493
0.781962
0.757719
0.739654
0.726235
0.716324
0.70907
0.70385
0.700229
0.697922
0.696758
0.69665
0.697557
0.699454
0.702317
0.706105
0.710766
0.71623
0.722414
0.729223
0.736558
0.744314
0.752388
0.760676
0.76908
0.777507
0.78587
0.794091
0.802097
0.809825
0.817218
0.824227
0.830807
0.83692
0.84253
0.847609
0.852132
0.856082
0.859445
0.862211
0.864377
0.865942
0.866905
0.867283
0.867095
0.866364
0.865081
0.863265
0.860907
0.858022
0.854621
0.850722
0.846341
0.841499
0.836219
0.830521
0.824431
0.817971
0.811166
0.804043
0.796627
0.788948
0.781033
0.772908
0.764586
0.756074
0.747382
0.738524
0.729506
0.720302
0.710867
0.701147
0.691062
0.680521
0.669467
0.658036
0.646535
0.635237
0.624369
0.61398
0.603867
0.593792
0.583574
0.573067
0.562164
0.550794
0.538921
0.52655
0.513721
0.50051
0.487027
0.473403
0.459785
0.446328
0.433183
0.420492
0.408382
0.396958
0.386306
0.376489
0.36755
0.359507
0.352358
0.346079
0.340627
0.335942
0.331949
0.328564
0.325697
0.323254
0.321143
0.319276
0.317574
0.315938
0.314253
0.312443
0.310436
0.308161
0.305567
0.302578
0.299119
0.295119
0.290521
0.285293
0.279442
0.273025
0.266151
0.258947
0.251503
0.243781
0.235548
0.226405
0.215921
0.203846
0.190275
0.175677
0.160782
0.146379
0.13313
0.121458
0.111537
0.103336
0.0966996
0.0914185
0.0872734
0.0840581
0.0815953
0.0797241
0.0783067
0.0772245
0.0763916
0.0757387
0.07521
0.0747634
0.0743679
0.0740018
0.0736504
0.0733048
0.0729598
0.0726131
0.0722639
0.0719126
0.07156
0.071207
0.070855
0.0705053
0.0701611
0.0698308
0.0695301
0.0692951
0.0690952
1.33241
1.47935
1.74919
1.60005
1.39966
1.23442
1.10986
1.01715
0.947623
0.894853
0.854347
0.822969
0.79849
0.779283
0.764136
0.752147
0.742653
0.735182
0.729418
0.725161
0.722298
0.720763
0.720508
0.721482
0.723619
0.726842
0.73106
0.736172
0.742068
0.748632
0.755746
0.763294
0.771159
0.779233
0.787411
0.795595
0.803696
0.811633
0.819333
0.826733
0.833774
0.840406
0.846578
0.852248
0.857376
0.861934
0.865895
0.869241
0.871957
0.874032
0.875461
0.876242
0.876381
0.875905
0.874816
0.873104
0.870784
0.867848
0.864307
0.860174
0.855468
0.850208
0.844417
0.838119
0.831339
0.824104
0.816441
0.808378
0.799944
0.79117
0.782092
0.772746
0.763161
0.753351
0.74332
0.733072
0.722617
0.711946
0.701024
0.689823
0.678265
0.666338
0.654192
0.642011
0.630004
0.618382
0.607332
0.596871
0.586851
0.577097
0.567438
0.557722
0.547816
0.53761
0.527017
0.51598
0.504481
0.492536
0.480202
0.46757
0.45476
0.441912
0.429181
0.416723
0.404686
0.39321
0.382413
0.372395
0.363232
0.354973
0.347642
0.341234
0.335721
0.331048
0.327145
0.323924
0.321288
0.319136
0.317369
0.315887
0.314601
0.313429
0.312275
0.31103
0.309618
0.307966
0.306014
0.303725
0.301024
0.297837
0.294094
0.289739
0.284738
0.279094
0.272858
0.266128
0.259031
0.251668
0.244032
0.235942
0.227043
0.216924
0.205311
0.192237
0.1781
0.16357
0.149402
0.136256
0.124578
0.114576
0.106255
0.0994833
0.0940619
0.089774
0.0864133
0.0838013
0.0817805
0.0802174
0.0789945
0.0780283
0.0772504
0.0766057
0.0760526
0.0755601
0.0751064
0.0746765
0.0742609
0.0738541
0.0734534
0.0730574
0.0726662
0.0722805
0.0719012
0.0715308
0.0711705
0.070824
0.0704988
0.0702085
0.0699836
0.069789
1.49437
1.65325
1.92656
1.7745
1.55993
1.37753
1.23619
1.12793
1.04422
0.97853
0.926249
0.884119
0.849817
0.821649
0.79836
0.779026
0.76297
0.749705
0.738884
0.73027
0.723707
0.719075
0.716269
0.715171