/*--------------------------------*- C++ -*----------------------------------*\
  =========                 |
  \\      /  F ield         | OpenFOAM: The Open Source CFD Toolbox
   \\    /   O peration     | Website:  https://openfoam.org
    \\  /    A nd           | Version:  9
     \\/     M anipulation  |
\*---------------------------------------------------------------------------*/
FoamFile
{
    format      ascii;
    class       volScalarField;
    location    "0.1";
    object      nut;
}
// * * * * * * * * * * * * * * * * * * * * * * * * * * * * * * * * * * * * * //

dimensions      [0 2 -1 0 0 0 0];

internalField   nonuniform List<scalar> 
12225
(
4.90137e-05
6.79658e-05
8.77125e-05
0.000102029
0.000108494
0.000109615
0.000108711
0.00010799
0.000108578
0.000111068
0.000116001
0.000124222
0.000137349
0.000158816
0.000196952
0.00027629
0.000501699
0.00213974
0.000389048
0.000342132
0.000318463
0.000308584
0.00029695
0.000283672
0.000269809
0.000256252
0.000243749
0.000232932
0.00022439
0.000218799
0.000217194
0.00022154
0.000236208
0.00027271
0.000376721
0.000750279
0.000644295
0.000557012
0.000575536
0.00059694
0.000596835
0.000581443
0.000558519
0.000534218
0.000512447
0.000495498
0.000484879
0.000482071
0.000489392
0.000511446
0.000558374
0.000654483
0.000870249
0.00145281
0.000788906
0.000721672
0.000707606
0.000715278
0.000715026
0.000703642
0.0006852
0.000665126
0.000647727
0.000636021
0.000632324
0.000639058
0.000659788
0.000700886
0.000774642
0.000905344
0.00113555
0.001581
0.000879781
0.000839435
0.000793293
0.000763926
0.000743814
0.000725868
0.00070831
0.000692646
0.000681197
0.000676225
0.000679955
0.000695006
0.000725129
0.000776314
0.000858301
0.000986457
0.00117345
0.00142821
0.000942644
0.00092149
0.000866359
0.000818156
0.000779871
0.000750408
0.000727616
0.000710913
0.000700824
0.000698477
0.000705434
0.000723812
0.000756613
0.000808147
0.000884288
0.000992361
0.00112796
0.00126589
0.000979754
0.000980233
0.000921491
0.000868232
0.000822787
0.000787087
0.000760066
0.000741047
0.000729953
0.000727244
0.00073385
0.000751187
0.000781223
0.000826499
0.000889848
0.000973691
0.00106555
0.00114019
0.000993274
0.00101724
0.000964354
0.000912027
0.000863747
0.000825596
0.000797016
0.000777159
0.000765594
0.000762344
0.000767826
0.000782797
0.000808287
0.000845422
0.000895013
0.000956673
0.00101478
0.00105414
0.000994642
0.00103604
0.000998225
0.000953581
0.00090566
0.000866706
0.000837902
0.000818522
0.000807742
0.000805044
0.00081024
0.000823386
0.000844631
0.000873958
0.0009108
0.000953025
0.000984431
0.00100005
0.00099643
0.00105318
0.00103179
0.000996203
0.000950465
0.00091254
0.000885394
0.000868263
0.000859718
0.000858544
0.000863882
0.000875129
0.000891712
0.000912795
0.000936971
0.000961
0.000969426
0.000964249
0.0010288
0.00108341
0.00106161
0.0010287
0.000985264
0.000950756
0.000927255
0.000912807
0.00090509
0.000902348
0.000903444
0.000907653
0.000914409
0.000923024
0.00093247
0.000939872
0.000933591
0.000921073
0.00105924
0.00109618
0.00106757
0.00104335
0.00101202
0.000987547
0.000969254
0.000954378
0.000940826
0.000927512
0.000914179
0.000901162
0.000889203
0.000879294
0.000872611
0.000869073
0.000864704
0.000878339
0.00107074
0.00108739
0.00107031
0.00107571
0.00107327
0.00106782
0.00105779
0.00104187
0.00102009
0.000993456
0.00096359
0.000932597
0.000902955
0.000877456
0.000859166
0.000849595
0.000855729
0.000886223
0.00105582
0.00104821
0.00104245
0.00106593
0.0010866
0.00109719
0.0010954
0.00108155
0.00105773
0.00102682
0.000992033
0.000956654
0.000923998
0.000897327
0.000879897
0.000871847
0.000886631
0.000921514
0.00101479
0.00100283
0.000991414
0.000987796
0.000989142
0.000990693
0.000987904
0.000978902
0.000964126
0.000945331
0.000924886
0.000905341
0.000889148
0.000878592
0.000876012
0.000878284
0.000900598
0.000930645
0.000968744
0.000978597
0.00098185
0.000960067
0.000941914
0.000928086
0.00091677
0.000906341
0.000896245
0.000886802
0.000878874
0.000873538
0.000871848
0.000874859
0.000884021
0.000892775
0.000919389
0.000941122
0.000922112
0.000958129
0.000987788
0.000965251
0.000942984
0.000923656
0.000908164
0.000896292
0.00088777
0.000882519
0.000880625
0.000882234
0.000887446
0.000896524
0.000910394
0.000919512
0.000946301
0.000957896
0.000883208
0.000934247
0.000983418
0.000964352
0.000944382
0.000926677
0.000912891
0.000903352
0.000897903
0.000896258
0.000898109
0.000903129
0.000910963
0.000921561
0.000935696
0.00094195
0.000965876
0.00096752
0.000860497
0.000908573
0.000960874
0.000945559
0.000931124
0.000919609
0.000911903
0.00090786
0.000906991
0.000908767
0.000912703
0.000918364
0.000925376
0.000933758
0.000944373
0.00094565
0.000962332
0.000954963
0.000858867
0.000882178
0.000911183
0.000901437
0.000895345
0.000892625
0.000892534
0.000893943
0.000896004
0.000898225
0.000900389
0.000902452
0.000904479
0.000906838
0.000910529
0.000907078
0.000913034
0.000903831
0.000863298
0.000869559
0.000881159
0.000873943
0.000869745
0.000867558
0.000866306
0.000864959
0.000863015
0.000860384
0.000857239
0.000853889
0.000850689
0.000848158
0.000847251
0.000842217
0.000843755
0.000836469
0.000868039
0.000865063
0.000866077
0.000860698
0.00085566
0.000850415
0.000844435
0.000837298
0.000829087
0.000820144
0.000810967
0.000802079
0.000793982
0.000787228
0.000782662
0.000776696
0.000775359
0.000769555
0.000873042
0.000865772
0.000859338
0.000852902
0.000843319
0.000831744
0.000818674
0.000804544
0.000789926
0.000775383
0.000761448
0.00074861
0.000737303
0.00072796
0.000721212
0.000715143
0.000711925
0.00070708
0.000878864
0.000869957
0.000855119
0.000840537
0.000821467
0.000800969
0.000780158
0.000759722
0.000740188
0.00072198
0.00070542
0.000690789
0.000678351
0.000668382
0.000661314
0.000656451
0.000653095
0.000649568
0.000882739
0.000868687
0.000840944
0.000812496
0.000782576
0.000754033
0.000727432
0.000702992
0.00068086
0.000661142
0.000643937
0.000629346
0.000617531
0.000608689
0.000603171
0.000601165
0.000600136
0.000599211
0.000874081
0.000844841
0.000803503
0.000762689
0.000724811
0.00069099
0.000661088
0.000634896
0.000612232
0.000592978
0.000577062
0.000564453
0.000555231
0.000549605
0.00054796
0.000551229
0.000556096
0.000560508
0.000837309
0.00078428
0.000728371
0.000678843
0.000638344
0.000605617
0.000578795
0.000556663
0.000538561
0.000524164
0.000513302
0.000505949
0.000502056
0.000501878
0.000505923
0.000515833
0.000529217
0.000541197
0.000749737
0.000655816
0.000583798
0.000541932
0.000514149
0.000493637
0.000477286
0.000463975
0.000453355
0.000445407
0.000440249
0.000437963
0.000438691
0.000442541
0.000450016
0.000462924
0.000481681
0.000498852
0.000497839
0.000409202
0.000356687
0.000327966
0.000307349
0.000291104
0.000277788
0.000266763
0.000257754
0.000250653
0.000245439
0.000242128
0.000240749
0.000241367
0.000244232
0.000250122
0.000260764
0.000274147
8.02772e-05
9.35659e-05
0.000105845
0.000115106
0.000120389
0.000121715
0.000119817
0.000115836
0.000110885
0.00010579
0.000101073
9.69941e-05
9.36402e-05
9.1247e-05
9.0029e-05
9.02792e-05
9.34198e-05
0.000104514
3.16552e-05
0.000233066
0.000282928
0.000307285
0.000318639
0.000322981
0.000323328
0.00032112
0.000317
0.000311415
0.000305768
0.000301204
0.000298709
0.000299204
0.000303737
0.000313777
0.000322305
0.000328344
8.18852e-05
8.52331e-05
8.83327e-05
9.30807e-05
0.00010266
0.000107701
0.000111495
0.000116862
0.000122064
0.000125389
0.00012382
0.000113949
0.000105448
9.92964e-05
9.49848e-05
9.20988e-05
9.03201e-05
8.9407e-05
8.91744e-05
8.94799e-05
9.02129e-05
9.1287e-05
9.26344e-05
9.42019e-05
9.5948e-05
9.78409e-05
9.98561e-05
0.000101976
0.000104272
0.000106787
0.000109499
0.000112396
0.000115474
0.000118719
0.00012207
0.000125446
0.000128916
0.000132487
0.000136154
0.000139922
0.0001438
0.000147801
0.000151939
0.000156228
0.000160684
0.00016532
0.000170151
0.000175189
0.000180444
0.000185927
0.000191642
0.000197595
0.000203784
0.000210204
0.000216842
0.000223681
0.000230693
0.000237839
0.000245068
0.000252317
0.000259502
0.000266524
0.000273261
0.000279573
0.000285295
0.000290243
0.000294222
0.000297461
0.000300801
0.000303987
0.00030675
0.0003089
0.000309425
0.000312272
0.000315255
0.00031594
0.000314814
0.000312273
0.000308657
0.000304223
0.000299166
0.000293639
0.000287762
0.000281733
0.000275736
0.000269712
0.000263639
0.000257518
0.000251367
0.000245215
0.000239099
0.000233057
0.000227128
0.000221347
0.000215746
0.00021035
0.000205178
0.000200241
0.000195536
0.000191026
0.000186411
0.000704046
0.000622157
0.00055671
0.000503914
0.000460975
0.000425535
0.000395738
0.000370161
0.000347695
0.000327453
0.000308748
0.000291139
0.000274551
0.000259434
0.000246788
0.000237961
0.000234303
0.000236912
0.000246481
0.000262694
0.000282337
0.000296764
0.000293558
0.000266283
0.000221823
0.00017372
0.000131737
9.92103e-05
7.55593e-05
5.88808e-05
4.72564e-05
3.91647e-05
3.35086e-05
2.95293e-05
2.67085e-05
2.46912e-05
2.3247e-05
2.22185e-05
2.1483e-05
2.09507e-05
2.05566e-05
2.02544e-05
2.00111e-05
1.98036e-05
1.9616e-05
1.94378e-05
1.92624e-05
1.9086e-05
1.89068e-05
1.87244e-05
1.8539e-05
1.83519e-05
1.81639e-05
1.7973e-05
1.77825e-05
1.75975e-05
1.74208e-05
1.72566e-05
1.71143e-05
1.70332e-05
1.72255e-05
8.38662e-05
0.000101467
0.000133074
0.000156691
0.00017491
0.00019065
0.000205407
0.000220239
0.000235619
0.000251124
0.000266508
0.000281131
0.000294219
0.000304188
0.000310227
0.000312601
0.000312698
0.000311729
0.000306253
0.000302412
0.000299797
0.000297903
0.000296784
0.00029746
0.000299726
0.00030236
0.000303706
0.000302268
0.000303073
0.000306526
0.000311586
0.000317259
0.00032351
0.000330417
0.000338081
0.000346593
0.000356021
0.000366401
0.000377739
0.000390015
0.000403186
0.000417204
0.000432068
0.000447796
0.000464294
0.000481464
0.000499028
0.000516808
0.000534791
0.000552965
0.00057125
0.000589554
0.000607649
0.000625324
0.000642598
0.000659577
0.000676367
0.000693053
0.000709705
0.000726386
0.000743144
0.00076002
0.000777042
0.000794232
0.000811598
0.000829138
0.000846842
0.000864685
0.000882632
0.000900634
0.000918629
0.000936538
0.000954267
0.000971706
0.000988723
0.00100517
0.00102087
0.00103563
0.00104923
0.00106143
0.00107196
0.00108055
0.00108687
0.00109062
0.00109147
0.00108867
0.00108121
0.00106937
0.0010536
0.00103628
0.00101745
0.00100274
0.000994148
0.000984096
0.000972583
0.000958312
0.000940936
0.000920544
0.000897493
0.000872273
0.000845422
0.000817376
0.000788543
0.000759485
0.000730637
0.000702322
0.000674772
0.00064814
0.000622517
0.000597944
0.000574419
0.000551907
0.000530347
0.000509653
0.000489731
0.000470592
0.000452076
0.000434004
0.000416355
0.00040533
0.000398738
0.000392723
0.000388653
0.000385647
0.000383331
0.000381295
0.000378995
0.000375955
0.000371854
0.000366532
0.000359995
0.000352374
0.000343853
0.00033458
0.00032456
0.000313552
0.00030103
0.000286294
0.000268772
0.000248395
0.000225839
0.000202479
0.000179983
0.000159785
0.00014274
0.000129125
0.000118818
0.000111485
0.000106693
0.000103982
0.000102897
0.000103017
0.000103964
0.000105419
0.000107115
0.000108882
0.000110584
0.00011212
0.000113429
0.000114485
0.000115284
0.000115837
0.000116164
0.000116291
0.000116244
0.00011605
0.000115734
0.00011532
0.000114826
0.000114272
0.000113668
0.000113024
0.000112332
0.000111608
0.000110855
0.000110075
0.000109288
0.000108637
0.000108902
0.000117062
0.000136171
0.000136166
0.000166282
0.000186299
0.000200905
0.000214008
0.000227284
0.00024167
0.000256965
0.000272723
0.000288832
0.000304572
0.000318715
0.000331005
0.000341189
0.000349262
0.000355855
0.00036143
0.000366257
0.000370607
0.00037465
0.000378624
0.000382868
0.000388007
0.000394326
0.000400979
0.000407748
0.000414718
0.00042494
0.000438433
0.000455141
0.000474276
0.000495793
0.000519429
0.000544923
0.000572004
0.000600403
0.000629848
0.000660074
0.000690828
0.000721904
0.000753138
0.000784133
0.000814525
0.000844279
0.000873354
0.000901699
0.000929257
0.000955992
0.000981875
0.00100682
0.00103077
0.0010535
0.00107519
0.00109598
0.00111607
0.00113564
0.00115481
0.00117368
0.00119234
0.00121086
0.00122927
0.00124761
0.00126592
0.00128421
0.00130249
0.00132078
0.00133906
0.00135734
0.0013756
0.00139381
0.00141197
0.00143003
0.00144797
0.00146575
0.00148334
0.00150071
0.00151781
0.00153462
0.00155113
0.00156732
0.0015832
0.0015988
0.00161418
0.00162944
0.00164464
0.0016599
0.00167536
0.00169072
0.00170546
0.00171485
0.00170837
0.00168328
0.00164619
0.00160277
0.00155612
0.00150831
0.00146043
0.0014131
0.00136665
0.0013213
0.00127718
0.0012344
0.00119304
0.00115316
0.00111483
0.00107804
0.00104282
0.00100912
0.000976898
0.000946081
0.000916573
0.000888255
0.000860984
0.000834551
0.000808478
0.000782466
0.000756044
0.000729038
0.00070103
0.000677261
0.000655128
0.00063702
0.000619566
0.000603005
0.000587111
0.000571696
0.000556388
0.000540816
0.000524692
0.00050788
0.000490432
0.000472548
0.000454449
0.000436201
0.00041755
0.000397861
0.00037627
0.000352066
0.000325127
0.000296169
0.000266656
0.000238438
0.000213248
0.000192277
0.000176029
0.000164461
0.000157209
0.000153756
0.000153521
0.00015591
0.000160324
0.000166179
0.000172916
0.00018003
0.000187102
0.000193764
0.000199751
0.000204907
0.000209166
0.000212528
0.000215034
0.000216759
0.000217791
0.000218224
0.000218147
0.000217646
0.000216795
0.000215656
0.000214279
0.000212697
0.000210928
0.000208966
0.000206789
0.000204336
0.000201481
0.000197999
0.000193465
0.000187112
0.000179165
0.000188066
0.000169794
0.000200165
0.000214421
0.00022192
0.000228856
0.000237639
0.000248738
0.000262153
0.000277877
0.000295172
0.000313157
0.000331124
0.000348304
0.000364026
0.00037791
0.000389946
0.000400395
0.000409665
0.00041827
0.000426785
0.000435842
0.000446123
0.000458272
0.000472673
0.000489306
0.000508106
0.000529571
0.000554333
0.000582613
0.000614004
0.000647707
0.000683024
0.000719622
0.00075718
0.000795251
0.000833443
0.000871422
0.000908911
0.0009457
0.000981585
0.00101626
0.00104967
0.00108177
0.00111254
0.001142
0.00117018
0.00119712
0.00122287
0.00124746
0.00127093
0.00129324
0.00131437
0.00133443
0.00135353
0.00137186
0.00138954
0.00140668
0.00142338
0.00143969
0.00145567
0.00147136
0.0014868
0.001502
0.00151698
0.00153175
0.00154632
0.00156068
0.00157482
0.00158872
0.00160237
0.00161574
0.00162879
0.00164151
0.00165383
0.00166574
0.00167719
0.00168813
0.00169853
0.00170836
0.0017176
0.00172622
0.00173423
0.00174163
0.00174846
0.00175474
0.00176049
0.00176562
0.00176964
0.00177155
0.00176954
0.00176043
0.00174328
0.00171969
0.00169086
0.00165831
0.00162344
0.00158723
0.00155033
0.0015132
0.00147618
0.00143951
0.00140338
0.00136796
0.00133334
0.00129964
0.00126691
0.0012352
0.00120453
0.00117489
0.00114625
0.00111856
0.00109175
0.0010657
0.00104026
0.00101525
0.000990384
0.000965324
0.000939056
0.000912048
0.00088615
0.000862824
0.000840732
0.000818198
0.000795308
0.000771978
0.000748218
0.000723874
0.000698747
0.000672679
0.000645639
0.000617793
0.000589512
0.000561281
0.000533521
0.000506367
0.000479522
0.000452281
0.000423818
0.000393604
0.000361771
0.000329266
0.000297721
0.000269043
0.000244873
0.0002262
0.000213317
0.000206013
0.000203788
0.000205982
0.000211838
0.000220539
0.000231235
0.000243095
0.000255336
0.000267322
0.000278474
0.000288396
0.000296881
0.000303863
0.000309366
0.000313478
0.000316329
0.000318068
0.00031885
0.000318823
0.000318123
0.000316872
0.000315168
0.000313091
0.000310696
0.000308014
0.000305035
0.000301727
0.000297967
0.000293536
0.00028804
0.000280762
0.000270553
0.000256924
0.000239417
0.000202123
0.000236583
0.000243961
0.000242454
0.000242336
0.000246497
0.00025517
0.000268181
0.000284782
0.000304004
0.000324943
0.000346655
0.00036821
0.000388835
0.000408052
0.00042576
0.00044222
0.000457978
0.000473761
0.000490372
0.000508601
0.000529138
0.000552477
0.000578841
0.000608185
0.000640346
0.00067522
0.000712705
0.000752529
0.000794213
0.000837165
0.000880788
0.000924545
0.000967925
0.0010107
0.00105267
0.00109361
0.00113335
0.00117173
0.00120856
0.00124378
0.00127737
0.00130935
0.00133975
0.00136861
0.001396
0.00142197
0.00144661
0.00146996
0.00149211
0.00151304
0.0015328
0.00155144
0.0015691
0.00158589
0.00160193
0.00161732
0.00163212
0.0016464
0.0016602
0.00167357
0.00168652
0.00169909
0.00171129
0.00172312
0.00173458
0.00174568
0.0017564
0.00176671
0.0017766
0.00178603
0.00179498
0.0018034
0.00181124
0.00181846
0.00182501
0.00183084
0.0018359
0.00184013
0.00184349
0.00184594
0.00184744
0.00184796
0.00184746
0.00184591
0.00184323
0.00183925
0.0018336
0.00182557
0.00181454
0.00180019
0.00178276
0.00176244
0.00173911
0.00171317
0.00168529
0.00165601
0.00162578
0.00159494
0.00156381
0.00153261
0.00150155
0.00147079
0.00144047
0.00141071
0.00138158
0.00135317
0.0013255
0.0012986
0.00127247
0.00124709
0.00122241
0.00119836
0.00117485
0.00115173
0.00112886
0.00110606
0.00108313
0.00106018
0.00103763
0.00101611
0.000994667
0.000972258
0.000948532
0.000923367
0.000896701
0.000868439
0.000838441
0.000806603
0.000772935
0.000737645
0.000701195
0.000664276
0.000627674
0.000592029
0.000557578
0.000524017
0.000490646
0.000456747
0.000422012
0.000386857
0.000352493
0.000320695
0.000293302
0.000271678
0.000256459
0.000247637
0.000244799
0.000247307
0.000254371
0.000265084
0.000278445
0.000293422
0.000309027
0.000324357
0.000338691
0.000351484
0.000362467
0.000371562
0.000378797
0.000384287
0.000388199
0.00039072
0.000392045
0.000392358
0.000391831
0.000390612
0.000388826
0.000386573
0.000383924
0.00038092
0.000377565
0.000373805
0.000369511
0.000364435
0.000358167
0.000350041
0.000339267
0.000326238
0.000293127
0.000232556
0.000277398
0.000276787
0.000265182
0.000257658
0.000257018
0.000263148
0.000275156
0.000291947
0.000312523
0.000335896
0.000361053
0.000387031
0.000413041
0.000438605
0.000463629
0.000488389
0.000513438
0.000539471
0.000567187
0.000597176
0.000629844
0.000665376
0.000703735
0.000744706
0.000787968
0.000833162
0.000879913
0.000927809
0.000976404
0.00102524
0.00107389
0.00112195
0.00116909
0.00121504
0.00125961
0.00130265
0.00134405
0.00138373
0.00142163
0.00145771
0.00149199
0.00152448
0.00155522
0.00158428
0.0016117
0.00163757
0.00166194
0.00168488
0.00170647
0.00172675
0.00174577
0.00176359
0.00178034
0.0017961
0.00181097
0.00182505
0.00183839
0.00185105
0.00186308
0.00187452
0.00188539
0.00189573
0.00190555
0.00191485
0.00192365
0.00193193
0.0019397
0.00194693
0.00195359
0.00195968
0.00196515
0.00196996
0.00197408
0.00197746
0.00198005
0.0019818
0.00198266
0.00198257
0.00198148
0.00197934
0.00197611
0.00197172
0.00196612
0.00195924
0.00195097
0.00194118
0.00192959
0.0019157
0.00189929
0.00188081
0.00186074
0.00183905
0.00181549
0.00179018
0.00176342
0.00173553
0.0017068
0.0016775
0.00164788
0.00161817
0.00158855
0.00155919
0.00153024
0.0015018
0.00147397
0.00144683
0.00142042
0.00139477
0.0013699
0.00134578
0.00132239
0.00129967
0.00127754
0.00125591
0.00123466
0.00121368
0.00119293
0.0011726
0.00115291
0.00113342
0.00111329
0.00109191
0.0010688
0.00104375
0.00101653
0.000986997
0.000954978
0.000920332
0.000883029
0.000843226
0.000801349
0.000758137
0.000714579
0.000671718
0.000630333
0.00059065
0.0005523
0.000514584
0.00047693
0.000439315
0.000402503
0.000367988
0.00033761
0.000312973
0.000295021
0.000283961
0.000279486
0.000281007
0.000287774
0.000298887
0.000313301
0.000329872
0.00034746
0.000364954
0.00038148
0.00039634
0.000409178
0.000419877
0.00042846
0.000435056
0.000439853
0.00044307
0.000444929
0.000445642
0.000445403
0.000444382
0.00044272
0.000440532
0.000437902
0.00043488
0.000431481
0.000427649
0.000423275
0.000418131
0.000411883
0.000404063
0.000394331
0.000383493
0.000356277
0.000261093
0.000321559
0.000310037
0.0002865
0.000270606
0.000264912
0.000268192
0.000278795
0.000295365
0.000316797
0.000342102
0.000370344
0.00040067
0.000432398
0.000465114
0.000498706
0.000533339
0.000569355
0.00060716
0.000647107
0.000689423
0.000734174
0.000781263
0.000830454
0.000881411
0.000933742
0.000987034
0.00104088
0.00109489
0.0011487
0.00120198
0.00125441
0.00130572
0.00135568
0.0014041
0.00145084
0.00149578
0.00153884
0.00157997
0.00161914
0.00165633
0.00169157
0.00172487
0.00175627
0.00178583
0.00181361
0.00183966
0.00186405
0.00188685
0.00190813
0.00192794
0.00194634
0.00196342
0.00197927
0.00199397
0.00200762
0.00202028
0.00203203
0.00204292
0.002053
0.00206231
0.00207089
0.00207875
0.00208592
0.00209242
0.00209826
0.00210344
0.00210795
0.00211179
0.00211495
0.0021174
0.00211913
0.00212011
0.0021203
0.00211967
0.00211818
0.0021158
0.00211247
0.00210816
0.00210281
0.00209639
0.00208884
0.00208012
0.00207016
0.0020589
0.00204624
0.00203207
0.00201613
0.00199802
0.00197773
0.00195599
0.00193325
0.00190937
0.00188419
0.00185778
0.00183031
0.00180197
0.001773
0.00174361
0.00171404
0.00168447
0.0016551
0.0016261
0.00159761
0.00156975
0.00154262
0.00151628
0.00149079
0.00146617
0.00144244
0.00141957
0.00139754
0.00137629
0.00135573
0.00133577
0.0013163
0.00129722
0.00127848
0.00126011
0.00124214
0.00122427
0.00120578
0.00118581
0.00116377
0.00113951
0.00111272
0.00108317
0.00105063
0.00101489
0.000975855
0.000933593
0.000888435
0.000841056
0.000792491
0.000744011
0.000696818
0.000651663
0.000608615
0.000567168
0.000526657
0.000486745
0.000447799
0.000410986
0.000378019
0.000350622
0.000329997
0.000316592
0.000310224
0.000310354
0.000316264
0.000327088
0.000341786
0.000359165
0.000377981
0.000396974
0.000415109
0.000431549
0.000445832
0.000457789
0.000467431
0.000474891
0.000480379
0.000484139
0.00048642
0.000487457
0.000487465
0.00048663
0.000485109
0.000483028
0.00048048
0.000477526
0.00047419
0.00047043
0.00046616
0.000461199
0.000455313
0.000448238
0.000439951
0.000431279
0.000435161
0.000286618
0.000364062
0.000338703
0.000301954
0.000277968
0.000267583
0.000268064
0.000277069
0.00029298
0.000314654
0.000341204
0.000371876
0.000406025
0.000443142
0.000482891
0.000525103
0.000569745
0.000616846
0.000666421
0.000718414
0.000772667
0.000828919
0.000886823
0.000945979
0.00100596
0.00106634
0.00112672
0.00118674
0.00124607
0.00130444
0.00136161
0.00141738
0.00147156
0.00152403
0.00157464
0.00162332
0.00166997
0.00171456
0.00175704
0.00179741
0.00183566
0.00187181
0.00190588
0.00193791
0.00196795
0.00199604
0.00202224
0.00204661
0.00206922
0.00209012
0.00210937
0.00212704
0.00214321
0.00215796
0.00217139
0.00218357
0.00219457
0.00220444
0.00221326
0.00222107
0.00222792
0.00223383
0.00223885
0.002243
0.00224631
0.00224878
0.00225044
0.00225128
0.00225132
0.00225054
0.00224895
0.00224652
0.00224326
0.00223913
0.00223412
0.00222821
0.00222136
0.00221355
0.00220476
0.00219494
0.00218408
0.00217212
0.00215904
0.00214478
0.00212929
0.00211248
0.00209423
0.00207425
0.00205226
0.00202859
0.00200396
0.00197868
0.0019526
0.00192562
0.00189779
0.00186924
0.00184012
0.00181062
0.00178093
0.00175126
0.0017218
0.00169273
0.00166422
0.00163642
0.00160943
0.00158337
0.00155828
0.00153422
0.0015112
0.00148923
0.00146826
0.00144826
0.00142915
0.00141084
0.0013932
0.00137611
0.00135943
0.00134306
0.00132691
0.00131086
0.00129464
0.00127767
0.00125928
0.00123883
0.00121582
0.00119003
0.00116117
0.00112896
0.00109314
0.00105355
0.00101017
0.000963225
0.00091329
0.00086135
0.000808751
0.000756964
0.000707167
0.000659888
0.000614929
0.000571676
0.000529609
0.000488776
0.000450023
0.000414872
0.000385061
0.000361986
0.000346341
0.00033811
0.000336818
0.000341761
0.000352088
0.000366771
0.000384598
0.00040425
0.000424374
0.000443775
0.000461494
0.00047696
0.00048995
0.000500451
0.000508601
0.000514628
0.000518799
0.000521388
0.000522655
0.000522834
0.000522128
0.000520708
0.000518709
0.000516234
0.000513353
0.000510101
0.000506454
0.000502351
0.000497664
0.000492251
0.000485999
0.000479065
0.000472122
0.000538608
0.000309662
0.000399169
0.000357523
0.000309345
0.000279
0.000264819
0.00026282
0.000270142
0.000284992
0.00030626
0.000333215
0.000365337
0.000402226
0.000443573
0.000489137
0.00053872
0.000592119
0.000649089
0.0007093
0.000772327
0.000837657
0.000904715
0.000972903
0.00104164
0.00111037
0.00117862
0.00124599
0.00131214
0.00137681
0.0014398
0.00150095
0.00156014
0.00161728
0.00167229
0.00172512
0.00177573
0.00182408
0.00187015
0.00191394
0.00195545
0.00199468
0.00203166
0.00206641
0.00209897
0.00212938
0.00215769
0.00218394
0.0022082
0.0022305
0.00225092
0.00226951
0.00228632
0.00230144
0.00231496
0.00232695
0.00233748
0.00234663
0.00235444
0.00236099
0.00236633
0.00237049
0.00237353
0.00237548
0.00237637
0.00237624
0.0023751
0.00237299
0.00236991
0.00236588
0.00236091
0.002355
0.00234817
0.0023404
0.00233169
0.00232205
0.00231145
0.0022999
0.00228738
0.00227388
0.00225939
0.00224388
0.00222735
0.00220975
0.00219106
0.00217121
0.00215013
0.00212765
0.00210348
0.00207764
0.00205077
0.00202346
0.00199577
0.00196755
0.00193878
0.00190952
0.00187986
0.00184994
0.00181994
0.00179003
0.0017604
0.00173126
0.00170277
0.00167511
0.00164841
0.0016228
0.00159835
0.00157512
0.00155315
0.00153244
0.00151296
0.00149465
0.00147745
0.00146125
0.00144592
0.00143131
0.00141725
0.00140357
0.00139008
0.00137662
0.00136298
0.00134887
0.00133378
0.00131713
0.00129838
0.00127695
0.00125251
0.00122476
0.00119337
0.00115806
0.00111861
0.00107495
0.00102721
0.000975856
0.000921784
0.00086632
0.00081106
0.00075749
0.000706542
0.000658377
0.000612545
0.00056846
0.000525939
0.000485542
0.000448571
0.000416707
0.000391465
0.000373757
0.000363768
0.000361121
0.000365132
0.000374941
0.000389516
0.000407627
0.000427903
0.000448923
0.000469365
0.000488152
0.000504621
0.000518483
0.000529705
0.000538421
0.000544875
0.000549358
0.000552167
0.000553587
0.000553871
0.000553239
0.000551874
0.000549922
0.000547496
0.000544674
0.000541501
0.000537971
0.00053405
0.000529656
0.00052472
0.000519226
0.000513411
0.000507756
0.000683755
0.000332617
0.000420148
0.000365511
0.000309957
0.000275271
0.000258262
0.000254186
0.000259844
0.000273357
0.000293671
0.000320218
0.000352695
0.000390937
0.000434834
0.000484273
0.000539088
0.000599012
0.000663647
0.000732448
0.000804735
0.000879717
0.000956546
0.00103437
0.00111238
0.00118986
0.0012662
0.00134094
0.0014137
0.00148424
0.00155238
0.00161802
0.00168111
0.00174162
0.00179954
0.00185488
0.00190766
0.00195789
0.00200558
0.00205076
0.00209346
0.0021337
0.00217152
0.00220695
0.00224002
0.00227077
0.00229926
0.00232553
0.00234962
0.00237159
0.00239149
0.00240936
0.00242528
0.00243931
0.00245154
0.00246203
0.00247087
0.0024781
0.0024838
0.00248802
0.00249081
0.00249223
0.00249233
0.00249114
0.0024887
0.00248505
0.00248023
0.00247426
0.00246718
0.00245899
0.00244974
0.00243943
0.00242808
0.0024157
0.00240231
0.00238792
0.00237252
0.00235615
0.00233878
0.00232044
0.00230113
0.00228083
0.00225955
0.00223727
0.00221395
0.00218953
0.00216392
0.00213687
0.00210835
0.00207884
0.00204899
0.00201912
0.00198914
0.00195892
0.00192848
0.00189786
0.00186717
0.00183654
0.00180613
0.00177612
0.0017467
0.00171808
0.00169042
0.00166391
0.00163868
0.00161484
0.00159247
0.00157162
0.00155229
0.00153447
0.00151811
0.00150311
0.00148936
0.00147671
0.00146499
0.001454
0.00144353
0.00143333
0.00142318
0.00141282
0.001402
0.0013904
0.00137756
0.00136292
0.00134601
0.00132636
0.00130343
0.00127696
0.00124664
0.00121214
0.00117324
0.00112979
0.00108188
0.00102988
0.000974581
0.000917234
0.000859466
0.000802946
0.00074893
0.000697931
0.000649731
0.000603779
0.000559745
0.000517953
0.000479486
0.00044592
0.000418819
0.000399267
0.000387651
0.000383732
0.000386867
0.000396182
0.000410623
0.000428934
0.000449695
0.000471439
0.000492737
0.000512428
0.000529751
0.00054436
0.000556192
0.000565379
0.000572176
0.000576896
0.000579861
0.000581377
0.000581717
0.000581116
0.00057977
0.000577837
0.000575437
0.000572657
0.000569553
0.000566135
0.000562393
0.000558282
0.000553784
0.000548941
0.000544009
0.000539296
0.000882527
0.000355881
0.000429959
0.000367138
0.00030688
0.000269376
0.00025039
0.000244664
0.0002488
0.000260877
0.000279901
0.000305431
0.000337329
0.000375616
0.000420353
0.000471564
0.000529171
0.000592947
0.000662484
0.000737182
0.000816258
0.000898777
0.000983708
0.00106998
0.00115657
0.00124253
0.00132706
0.00140953
0.00148946
0.00156654
0.00164056
0.00171142
0.0017791
0.00184361
0.00190501
0.00196336
0.00201873
0.00207118
0.00212078
0.00216759
0.00221167
0.00225307
0.00229183
0.00232802
0.00236167
0.00239283
0.00242155
0.00244786
0.00247183
0.0024935
0.00251291
0.00253011
0.00254517
0.00255816
0.00256914
0.00257819
0.00258537
0.00259074
0.00259437
0.00259631
0.00259661
0.00259534
0.00259254
0.00258826
0.00258254
0.00257543
0.00256697
0.0025572
0.00254615
0.00253385
0.00252035
0.00250567
0.00248983
0.00247287
0.00245481
0.00243567
0.00241548
0.00239425
0.00237201
0.00234878
0.00232456
0.00229938
0.00227322
0.00224607
0.00221789
0.00218861
0.00215808
0.00212629
0.00209365
0.00206082
0.00202827
0.00199604
0.00196392
0.00193189
0.00189994
0.00186814
0.00183657
0.00180537
0.00177471
0.00174476
0.00171573
0.00168781
0.0016612
0.00163608
0.00161258
0.00159082
0.00157088
0.00155278
0.00153653
0.00152205
0.00150928
0.00149808
0.00148827
0.00147967
0.00147203
0.00146511
0.0014586
0.00145224
0.00144571
0.00143873
0.00143097
0.00142212
0.00141173
0.00139927
0.0013843
0.0013664
0.00134506
0.00131997
0.00129082
0.0012573
0.00121914
0.00117621
0.00112852
0.00107638
0.00102048
0.000961997
0.000902511
0.000843781
0.000787297
0.000733878
0.00068357
0.000635926
0.000590552
0.000547587
0.000507916
0.000472981
0.000444342
0.0004232
0.000410121
0.000405019
0.000407326
0.000416169
0.000430459
0.000448906
0.00047004
0.000492356
0.000514346
0.000534786
0.000552825
0.000568062
0.000580404
0.000589978
0.000597049
0.000601947
0.000605016
0.000606585
0.000606943
0.000606343
0.000604992
0.000603056
0.000600667
0.000597917
0.000594873
0.00059156
0.000587986
0.000584137
0.000580026
0.000575725
0.000571479
0.000567458
0.00114938
0.000378765
0.000435517
0.000366586
0.000303504
0.000264302
0.000243972
0.000236954
0.000239747
0.000250422
0.000268025
0.000292188
0.000322877
0.000360225
0.000404413
0.000455579
0.000513757
0.000578822
0.000650461
0.000728154
0.000811168
0.000898575
0.000989288