/*--------------------------------*- C++ -*----------------------------------*\
  =========                 |
  \\      /  F ield         | OpenFOAM: The Open Source CFD Toolbox
   \\    /   O peration     | Website:  https://openfoam.org
    \\  /    A nd           | Version:  9
     \\/     M anipulation  |
\*---------------------------------------------------------------------------*/
FoamFile
{
    format      ascii;
    class       volScalarField;
    location    "0.1";
    object      p;
}
// * * * * * * * * * * * * * * * * * * * * * * * * * * * * * * * * * * * * * //

dimensions      [0 2 -2 0 0 0 0];

internalField   nonuniform List<scalar> 
12225
(
1902.6
1884.46
1863.74
1847.8
1833.48
1819.98
1807.16
1794.89
1783.08
1771.65
1760.48
1749.5
1738.57
1727.57
1716.28
1704.41
1691.55
1676.86
1902.35
1884.18
1863.57
1847.71
1833.4
1819.92
1807.1
1794.83
1783.02
1771.58
1760.41
1749.42
1738.49
1727.49
1716.21
1704.37
1691.58
1677.32
1902.57
1883.89
1863.27
1847.52
1833.25
1819.79
1806.98
1794.71
1782.9
1771.46
1760.29
1749.31
1738.39
1727.41
1716.19
1704.49
1692.02
1678.72
1902.63
1883.44
1862.83
1847.23
1833.01
1819.57
1806.78
1794.52
1782.72
1771.28
1760.12
1749.15
1738.26
1727.33
1716.23
1704.77
1692.8
1680.44
1902.28
1882.83
1862.28
1846.83
1832.68
1819.28
1806.5
1794.26
1782.47
1771.04
1759.89
1748.95
1738.11
1727.27
1716.33
1705.17
1693.74
1682.32
1901.6
1882.11
1861.64
1846.34
1832.27
1818.91
1806.16
1793.94
1782.16
1770.74
1759.63
1748.72
1737.95
1727.24
1716.5
1705.66
1694.78
1684.24
1900.7
1881.35
1860.97
1845.78
1831.79
1818.48
1805.76
1793.56
1781.8
1770.41
1759.33
1748.49
1737.81
1727.24
1716.73
1706.23
1695.88
1686.14
1899.69
1880.59
1860.31
1845.19
1831.27
1818.01
1805.32
1793.14
1781.41
1770.06
1759.03
1748.26
1737.69
1727.29
1717.01
1706.87
1697.02
1687.97
1898.63
1879.85
1859.68
1844.6
1830.73
1817.5
1804.85
1792.7
1781
1769.69
1758.72
1748.04
1737.6
1727.38
1717.35
1707.54
1698.17
1689.7
1897.6
1879.16
1859.1
1844.01
1830.17
1816.97
1804.34
1792.23
1780.56
1769.31
1758.41
1747.82
1737.52
1727.48
1717.69
1708.21
1699.26
1691.26
1896.59
1878.48
1858.56
1843.44
1829.61
1816.43
1803.84
1791.75
1780.13
1768.93
1758.11
1747.63
1737.47
1727.61
1718.06
1708.87
1700.29
1692.66
1895.64
1877.77
1858
1842.87
1829.03
1815.88
1803.31
1791.27
1779.7
1768.56
1757.82
1747.45
1737.43
1727.74
1718.41
1709.48
1701.19
1693.92
1894.52
1877.01
1857.46
1842.29
1828.45
1815.32
1802.79
1790.79
1779.27
1768.2
1757.55
1747.29
1737.41
1727.9
1718.77
1710.07
1702.06
1694.96
1892.76
1876.02
1856.9
1841.75
1827.94
1814.85
1802.37
1790.42
1778.97
1767.97
1757.42
1747.27
1737.53
1728.18
1719.24
1710.75
1702.97
1695.97
1890.68
1874.87
1856.28
1841.23
1827.48
1814.45
1802.02
1790.14
1778.77
1767.86
1757.4
1747.38
1737.77
1728.57
1719.79
1711.45
1703.86
1696.89
1888.46
1873.54
1855.55
1840.69
1827.06
1814.12
1801.79
1790.01
1778.73
1767.92
1757.58
1747.67
1738.19
1729.12
1720.46
1712.24
1704.77
1697.77
1886.32
1872.13
1854.72
1840.12
1826.66
1813.87
1801.66
1789.99
1778.83
1768.14
1757.91
1748.12
1738.74
1729.78
1721.21
1713.05
1705.64
1698.56
1884.53
1870.85
1853.9
1839.57
1826.31
1813.68
1801.62
1790.08
1779.04
1768.46
1758.34
1748.64
1739.35
1730.45
1721.93
1713.79
1706.39
1699.19
1883.44
1869.96
1853.27
1839.16
1826.09
1813.61
1801.68
1790.26
1779.31
1768.82
1758.77
1749.12
1739.88
1731
1722.48
1714.32
1706.89
1699.57
1883.58
1869.93
1853.2
1839.15
1826.14
1813.73
1801.85
1790.46
1779.54
1769.07
1759.02
1749.36
1740.1
1731.19
1722.63
1714.43
1706.92
1699.59
1884.11
1870.15
1853.26
1839.2
1826.23
1813.85
1801.99
1790.61
1779.69
1769.21
1759.14
1749.46
1740.17
1731.23
1722.62
1714.38
1706.8
1699.46
1884.81
1870.47
1853.37
1839.3
1826.33
1813.96
1802.11
1790.72
1779.79
1769.28
1759.17
1749.46
1740.12
1731.14
1722.49
1714.18
1706.52
1699.17
1885.6
1870.83
1853.51
1839.42
1826.45
1814.08
1802.2
1790.8
1779.84
1769.3
1759.16
1749.4
1740.01
1730.97
1722.27
1713.9
1706.14
1698.76
1886.41
1871.18
1853.65
1839.56
1826.59
1814.19
1802.29
1790.86
1779.87
1769.3
1759.12
1749.32
1739.88
1730.79
1722.02
1713.58
1705.71
1698.28
1887.16
1871.49
1853.81
1839.73
1826.74
1814.31
1802.38
1790.92
1779.9
1769.29
1759.08
1749.23
1739.75
1730.6
1721.77
1713.26
1705.26
1697.77
1887.74
1871.75
1853.99
1839.9
1826.89
1814.43
1802.47
1790.98
1779.92
1769.28
1759.04
1749.16
1739.63
1730.43
1721.54
1712.96
1704.84
1697.25
1888
1871.97
1854.18
1840.07
1827.02
1814.53
1802.55
1791.03
1779.94
1769.28
1759
1749.09
1739.53
1730.29
1721.36
1712.71
1704.45
1696.74
1887.8
1872.1
1854.35
1840.2
1827.13
1814.62
1802.61
1791.06
1779.96
1769.27
1758.97
1749.04
1739.45
1730.19
1721.21
1712.52
1704.15
1696.26
1887.29
1872.15
1854.47
1840.28
1827.2
1814.67
1802.64
1791.08
1779.96
1769.26
1758.95
1749
1739.4
1730.11
1721.12
1712.4
1703.94
1695.84
1887.24
1872.31
1854.55
1840.32
1827.23
1814.69
1802.66
1791.09
1779.97
1769.26
1758.94
1748.99
1739.38
1730.08
1721.08
1712.35
1703.86
1695.59
1498.12
1498.13
1498.04
1497.88
1497.67
1497.39
1497.06
1496.67
1496.2
1495.65
1495.02
1494.3
1493.48
1492.56
1491.51
1490.34
1489.05
1487.64
1486.1
1484.45
1482.73
1480.95
1479.11
1477.22
1475.27
1473.26
1471.26
1469.07
1466.57
1463.98
1461.42
1458.89
1456.39
1453.88
1451.36
1448.82
1446.26
1443.65
1441
1438.3
1435.55
1432.75
1429.89
1426.98
1424
1420.97
1417.88
1414.73
1411.52
1408.25
1404.92
1401.53
1398.08
1394.57
1391
1387.36
1383.67
1379.91
1376.09
1372.21
1368.27
1364.27
1360.21
1356.09
1351.9
1347.66
1343.34
1338.96
1334.52
1330
1325.41
1320.74
1315.99
1311.15
1306.22
1301.19
1296.06
1290.8
1285.43
1279.91
1274.24
1268.4
1262.38
1256.15
1249.7
1242.98
1235.98
1228.66
1220.98
1212.91
1204.42
1195.71
1187.24
1179.21
1171.53
1164.18
1157.09
1150.22
1143.53
1136.98
1130.54
1124.19
1117.91
1111.67
1105.45
1099.25
1093.05
1086.85
1080.63
1074.39
1068.12
1061.82
1055.48
1049.11
1042.7
1036.25
1029.77
1023.24
1016.68
1010.11
1003.72
997.374
990.936
984.516
978.07
971.583
965.061
958.504
951.909
945.273
938.586
931.842
925.026
918.124
911.118
903.984
896.694
889.221
881.548
873.676
865.634
857.465
849.217
840.926
832.61
824.273
815.911
807.514
799.071
790.576
782.024
773.413
764.743
756.017
747.237
738.407
729.529
720.606
711.638
702.629
693.579
684.489
675.361
666.195
656.993
647.753
638.478
629.168
619.825
610.45
601.047
591.622
582.18
572.733
563.295
553.886
544.542
535.315
526.306
517.743
1498.38
1498.35
1498.24
1498.08
1497.88
1497.62
1497.31
1496.92
1496.46
1495.91
1495.28
1494.56
1493.73
1492.8
1491.75
1490.57
1489.29
1487.89
1486.39
1484.81
1483.14
1481.41
1479.62
1477.77
1475.89
1473.92
1471.86
1469.6
1467.14
1464.6
1462.03
1459.47
1456.92
1454.37
1451.81
1449.24
1446.63
1443.99
1441.31
1438.58
1435.81
1432.99
1430.11
1427.18
1424.19
1421.14
1418.03
1414.87
1411.65
1408.36
1405.02
1401.62
1398.16
1394.63
1391.05
1387.39
1383.68
1379.91
1376.08
1372.18
1368.22
1364.21
1360.13
1355.99
1351.78
1347.51
1343.18
1338.78
1334.31
1329.77
1325.15
1320.46
1315.68
1310.82
1305.86
1300.8
1295.64
1290.36
1284.95
1279.4
1273.7
1267.84
1261.79
1255.54
1249.06
1242.33
1235.33
1228.02
1220.37
1212.39
1204.13
1195.77
1187.52
1179.54
1171.88
1164.52
1157.42
1150.53
1143.81
1137.24
1130.78
1124.4
1118.09
1111.83
1105.6
1099.38
1093.17
1086.95
1080.72
1074.47
1068.19
1061.88
1055.54
1049.16
1042.74
1036.29
1029.8
1023.28
1016.73
1010.2
1003.8
997.414
990.963
984.525
978.058
971.554
965.015
958.442
951.831
945.18
938.481
931.725
924.899
917.988
910.974
903.834
896.542
889.074
881.414
873.562
865.541
857.391
849.159
840.878
832.571
824.241
815.884
807.491
799.053
790.562
782.014
773.406
764.739
756.014
747.236
738.407
729.531
720.608
711.642
702.633
693.583
684.493
675.365
666.2
656.997
647.757
638.481
629.171
619.826
610.45
601.046
591.618
582.174
572.723
563.279
553.862
544.505
535.254
526.194
517.475
1498.95
1498.92
1498.82
1498.68
1498.49
1498.26
1497.96
1497.59
1497.13
1496.6
1495.97
1495.24
1494.42
1493.49
1492.45
1491.29
1490.02
1488.64
1487.17
1485.61
1483.96
1482.25
1480.47
1478.62
1476.69
1474.68
1472.57
1470.35
1467.99
1465.54
1463.02
1460.47
1457.9
1455.32
1452.71
1450.09
1447.43
1444.74
1442.01
1439.24
1436.42
1433.55
1430.63
1427.66
1424.63
1421.55
1418.41
1415.21
1411.95
1408.63
1405.25
1401.82
1398.33
1394.77
1391.15
1387.47
1383.73
1379.93
1376.06
1372.14
1368.15
1364.1
1359.99
1355.82
1351.58
1347.28
1342.91
1338.47
1333.96
1329.38
1324.73
1319.99
1315.17
1310.27
1305.27
1300.17
1294.96
1289.63
1284.18
1278.59
1272.86
1266.95
1260.87
1254.6
1248.1
1241.37
1234.38
1227.12
1219.57
1211.76
1203.79
1195.75
1187.77
1179.94
1172.36
1165.03
1157.92
1151.02
1144.28
1137.68
1131.18
1124.78
1118.44
1112.15
1105.89
1099.64
1093.41
1087.17
1080.91
1074.64
1068.34
1062.02
1055.66
1049.27
1042.85
1036.38
1029.89
1023.36
1016.82
1010.31
1003.86
997.418
990.962
984.508
978.024
971.501
964.943
958.349
951.715
945.039
938.315
931.535
924.687
917.757
910.726
903.572
896.273
888.807
881.161
873.335
865.349
857.235
849.034
840.779
832.491
824.176
815.832
807.45
799.021
790.538
781.996
773.394
764.732
756.011
747.236
738.41
729.536
720.615
711.649
702.641
693.592
684.503
675.375
666.209
657.005
647.765
638.488
629.176
619.83
610.451
601.044
591.611
582.161
572.701
563.246
553.813
544.428
535.132
525.981
517.049
1499.86
1499.84
1499.77
1499.65
1499.49
1499.28
1498.99
1498.64
1498.19
1497.66
1497.03
1496.31
1495.48
1494.55
1493.51
1492.37
1491.12
1489.76
1488.32
1486.78
1485.15
1483.45
1481.66
1479.79
1477.84
1475.79
1473.66
1471.44
1469.13
1466.73
1464.25
1461.72
1459.15
1456.54
1453.89
1451.22
1448.51
1445.76
1442.97
1440.14
1437.27
1434.35
1431.37
1428.35
1425.27
1422.14
1418.95
1415.7
1412.39
1409.03
1405.61
1402.14
1398.6
1395.01
1391.35
1387.63
1383.85
1380
1376.1
1372.13
1368.1
1364.01
1359.86
1355.64
1351.35
1347
1342.59
1338.1
1333.55
1328.92
1324.21
1319.42
1314.55
1309.59
1304.54
1299.38
1294.12
1288.74
1283.24
1277.61
1271.83
1265.89
1259.78
1253.48
1246.98
1240.27
1233.33
1226.16
1218.76
1211.17
1203.48
1195.76
1188.04
1180.41
1172.94
1165.67
1158.59
1151.68
1144.92
1138.29
1131.76
1125.32
1118.94
1112.61
1106.31
1100.03
1093.76
1087.49
1081.21
1074.91
1068.58
1062.24
1055.86
1049.45
1043.01
1036.53
1030.03
1023.5
1016.97
1010.45
1003.96
997.488
991.004
984.517
978.003
971.451
964.864
958.24
951.576
944.868
938.112
931.301
924.424
917.468
910.415
903.246
895.938
888.473
880.84
873.04
865.091
857.019
848.859
840.638
832.378
824.086
815.761
807.395
798.979
790.507
781.974
773.38
764.724
756.009
747.238
738.417
729.546
720.627
711.663
702.655
693.607
684.518
675.39
666.224
657.02
647.778
638.5
629.186
619.836
610.454
601.041
591.602
582.142
572.67
563.197
553.738
544.314
534.954
525.687
516.53
1501.18
1501.2
1501.16
1501.07
1500.94
1500.74
1500.47
1500.12
1499.68
1499.14
1498.51
1497.78
1496.95
1496.01
1494.98
1493.84
1492.6
1491.26
1489.83
1488.3
1486.68
1484.97
1483.17
1481.29
1479.32
1477.25
1475.11
1472.88
1470.57
1468.18
1465.71
1463.18
1460.6
1457.97
1455.29
1452.57
1449.81
1447.01
1444.16
1441.28
1438.34
1435.36
1432.33
1429.24
1426.11
1422.92
1419.67
1416.37
1413.01
1409.59
1406.12
1402.6
1399.01
1395.37
1391.66
1387.89
1384.06
1380.16
1376.21
1372.19
1368.11
1363.97
1359.76
1355.49
1351.15
1346.75
1342.28
1337.74
1333.13
1328.44
1323.67
1318.83
1313.9
1308.88
1303.77
1298.56
1293.24
1287.81
1282.26
1276.58
1270.75
1264.78
1258.65
1252.35
1245.87
1239.2
1232.33
1225.28
1218.04
1210.68
1203.25
1195.79
1188.31
1180.87
1173.54
1166.36
1159.32
1152.42
1145.66
1139
1132.45
1125.97
1119.55
1113.18
1106.84
1100.52
1094.21
1087.9
1081.59
1075.25
1068.9
1062.52
1056.12
1049.69
1043.23
1036.74
1030.22
1023.69
1017.15
1010.62
1004.1
997.588
991.072
984.55
978
971.412
964.791
958.132
951.432
944.688
937.896
931.049
924.138
917.151
910.072
902.882
895.563
888.096
880.475
872.701
864.788
856.759
848.643
840.464
832.239
823.977
815.676
807.33
798.93
790.472
781.95
773.365
764.717
756.008
747.243
738.427
729.56
720.644
711.682
702.676
693.629
684.541
675.413
666.247
657.042
647.799
638.518
629.201
619.848
610.46
601.04
591.592
582.119
572.63
563.134
553.641
544.168
534.729
525.335
515.965
1503.04
1503.09
1503.08
1503.02
1502.9
1502.72
1502.45
1502.09
1501.64
1501.09
1500.45
1499.7
1498.86
1497.91
1496.86
1495.72
1494.47
1493.13
1491.69
1490.15
1488.52
1486.8
1484.99
1483.08
1481.09
1479.01
1476.85
1474.6
1472.28
1469.87
1467.4
1464.86
1462.26
1459.6
1456.89
1454.13
1451.32
1448.47
1445.57
1442.62
1439.63
1436.58
1433.49
1430.34
1427.14
1423.89
1420.58
1417.22
1413.8
1410.32
1406.79
1403.21
1399.57
1395.87
1392.1
1388.27
1384.39
1380.44
1376.42
1372.35
1368.21
1364.01
1359.75
1355.42
1351.02
1346.56
1342.03
1337.43
1332.75
1328
1323.18
1318.27
1313.28
1308.2
1303.03
1297.76
1292.39
1286.91
1281.31
1275.59
1269.74
1263.74
1257.6
1251.31
1244.86
1238.24
1231.46
1224.53
1217.46
1210.3
1203.09
1195.85
1188.58
1181.32
1174.12
1167.03
1160.05
1153.19
1146.43
1139.76
1133.19
1126.68
1120.23
1113.82
1107.44
1101.08
1094.74
1088.39
1082.03
1075.67
1069.28
1062.87
1056.44
1049.98
1043.5
1036.99
1030.46
1023.91
1017.36
1010.81
1004.26
997.711
991.16
984.603
978.016
971.39
964.73
958.032
951.293
944.51
937.679
930.793
923.845
916.824
909.716
902.504
895.17
887.701
880.09
872.338
864.458
856.471
848.399
840.264
832.08
823.852
815.581
807.258
798.878
790.435
781.926
773.351
764.712
756.01
747.252
738.441
729.58
720.667
711.708
702.704
693.658
684.571
675.443
666.277
657.071
647.826
638.544
629.223
619.865
610.47
601.042
591.582
582.094
572.584
563.059
553.527
543.995
534.471
524.946
515.383
1505.54
1505.61
1505.6
1505.54
1505.42
1505.22
1504.94
1504.56
1504.09
1503.52
1502.85
1502.07
1501.2
1500.23
1499.16
1497.99
1496.72
1495.36
1493.9
1492.34
1490.69
1488.94
1487.1
1485.18
1483.16
1481.06
1478.87
1476.6
1474.25
1471.83
1469.33
1466.77
1464.14
1461.45
1458.7
1455.9
1453.05
1450.14
1447.19
1444.18
1441.12
1438.01
1434.85
1431.64
1428.37
1425.05
1421.68
1418.25
1414.76
1411.22
1407.62
1403.98
1400.27
1396.51
1392.69
1388.8
1384.85
1380.84
1376.76
1372.63
1368.43
1364.16
1359.84
1355.44
1350.99
1346.46
1341.87
1337.2
1332.46
1327.65
1322.76
1317.8
1312.75
1307.61
1302.38
1297.06
1291.63
1286.1
1280.46
1274.71
1268.83
1262.83
1256.69
1250.41
1244
1237.44
1230.75
1223.93
1217.02
1210.04
1203.02
1195.95
1188.85
1181.74
1174.68
1167.68
1160.76
1153.94
1147.2
1140.54
1133.95
1127.42
1120.94
1114.5
1108.09
1101.69
1095.31
1088.92
1082.53
1076.13
1069.71
1063.27
1056.81
1050.32
1043.82
1037.28
1030.73
1024.17
1017.59
1011.02
1004.44
997.854
991.269
984.676
978.051
971.386
964.685
957.947
951.167
944.343
937.471
930.544
923.557
916.501
909.361
902.125
894.777
887.304
879.7
871.968
864.118
856.168
848.139
840.047
831.905
823.716
815.477
807.183
798.825
790.4
781.905
773.341
764.71
756.017
747.265
738.461
729.605
720.696
711.74
702.739
693.694
684.608
675.481
666.314
657.108
647.861
638.576
629.251
619.887
610.485
601.047
591.573
582.067
572.534
562.976
553.399
543.805
534.19
524.538
514.804
1508.84
1508.89
1508.83
1508.72
1508.55
1508.31
1507.98
1507.56
1507.04
1506.43
1505.71
1504.9
1503.99
1502.97
1501.87
1500.66
1499.36
1497.96
1496.46
1494.87
1493.18
1491.41
1489.54
1487.58
1485.53
1483.39
1481.17
1478.87
1476.5
1474.04
1471.52
1468.92
1466.26
1463.53
1460.74
1457.89
1454.99
1452.02
1449.01
1445.94
1442.82
1439.64
1436.41
1433.13
1429.79
1426.4
1422.96
1419.46
1415.9
1412.29
1408.63
1404.91
1401.14
1397.32
1393.43
1389.47
1385.46
1381.38
1377.24
1373.04
1368.77
1364.44
1360.05
1355.59
1351.07
1346.48
1341.82
1337.09
1332.29
1327.41
1322.46
1317.43
1312.32
1307.13
1301.84
1296.47
1291
1285.43
1279.75
1273.97
1268.08
1262.06
1255.93
1249.68
1243.3
1236.81
1230.21
1223.5
1216.72
1209.89
1203.02
1196.1
1189.13
1182.16
1175.2
1168.3
1161.45
1154.67
1147.95
1141.3
1134.71
1128.17
1121.67
1115.2
1108.76
1102.34
1095.92
1089.5
1083.07
1076.64
1070.18
1063.71
1057.22
1050.71
1044.17
1037.61
1031.04
1024.45
1017.85
1011.25
1004.64
998.017
991.397
984.769
978.107
971.402
964.661
957.881
951.059
944.194
937.279
930.312
923.285
916.192
909.021
901.761
894.397
886.918
879.32
871.604
863.779
855.863
847.872
839.822
831.721
823.572
815.369
807.105
798.772
790.367
781.887
773.335
764.714
756.029
747.284
738.487
729.637
720.733
711.779
702.781
693.738
684.653
675.527
666.36
657.152
647.904
638.616
629.286
619.916
610.506
601.056
591.567
582.041
572.481
562.889
553.263
543.602
533.898
524.125
514.238
1513.01
1512.97
1512.79
1512.57
1512.31
1511.98
1511.58
1511.08
1510.5
1509.82
1509.05
1508.17
1507.21
1506.14
1504.98
1503.72
1502.37
1500.92
1499.38
1497.75
1496.02
1494.2
1492.29
1490.29
1488.2
1486.03
1483.77
1481.43
1479.02
1476.53
1473.96
1471.32
1468.61
1465.84
1463
1460.1
1457.14
1454.12
1451.04
1447.91
1444.72
1441.48
1438.18
1434.82
1431.41
1427.95
1424.43
1420.86
1417.23
1413.55
1409.81
1406.02
1402.18
1398.29
1394.33
1390.31
1386.22
1382.07
1377.86
1373.59
1369.26
1364.86
1360.4
1355.88
1351.29
1346.63
1341.91
1337.11
1332.25
1327.31
1322.3
1317.21
1312.04
1306.79
1301.45
1296.03
1290.51
1284.91
1279.2
1273.4
1267.49
1261.47
1255.35
1249.12
1242.79
1236.36
1229.83
1223.22
1216.56
1209.85
1203.1
1196.29
1189.44
1182.57
1175.72
1168.89
1162.11
1155.37
1148.69
1142.05
1135.46
1128.92
1122.4
1115.92
1109.46
1103
1096.55
1090.1
1083.65
1077.18
1070.69
1064.19
1057.67
1051.12
1044.56
1037.98
1031.38
1024.76
1018.14
1011.5
1004.86
998.202
991.548
984.885
978.187
971.443
964.66
957.838
950.975
944.067
937.111
930.103
923.037
915.908
908.705
901.42
894.039
886.554
878.959
871.256
863.453
855.566
847.609
839.597
831.535
823.425
815.258
807.026
798.721
790.337
781.874
773.335
764.724
756.047
747.31
738.519
729.675
720.776
711.826
702.83
693.79
684.706
675.581
666.414
657.206
647.956
638.664
629.33
619.953
610.533
601.07
591.565
582.018
572.43
562.799
553.123
543.395
533.602
523.715
513.692
1517.87
1517.69
1517.39
1517.04
1516.65
1516.21
1515.71
1515.12
1514.45
1513.69
1512.84
1511.9
1510.86
1509.73
1508.5
1507.19
1505.77
1504.27
1502.67
1500.98
1499.2
1497.33
1495.37
1493.32
1491.19
1488.97
1486.67
1484.28
1481.82
1479.28
1476.66
1473.98
1471.22
1468.39
1465.5
1462.54
1459.52
1456.43
1453.29
1450.09
1446.83
1443.51
1440.14
1436.71
1433.23
1429.69
1426.1
1422.45
1418.74
1414.99
1411.17
1407.31
1403.4
1399.43
1395.4
1391.31
1387.15
1382.93
1378.65
1374.31
1369.91
1365.44
1360.91
1356.32
1351.66
1346.93
1342.14
1337.28
1332.35
1327.35
1322.28
1317.13
1311.9
1306.6
1301.22
1295.75
1290.19
1284.55
1278.82
1272.99
1267.07
1261.06
1254.95
1248.75
1242.45
1236.07
1229.61
1223.09
1216.53
1209.92
1203.25
1196.53
1189.78
1183
1176.23
1169.48
1162.75
1156.06
1149.41
1142.79
1136.21
1129.66
1123.14
1116.64
1110.16
1103.69
1097.21
1090.73
1084.25
1077.75
1071.23
1064.7
1058.15
1051.57
1044.98
1038.37
1031.74
1025.1
1018.44
1011.78
1005.1
998.41
991.722
985.025
978.291
971.509
964.686
957.824
950.919
943.97
936.972
929.924
922.82
915.655
908.421
901.111
893.713
886.22
878.626
870.933
863.148
855.285
847.358
839.38
831.354
823.28
815.149
806.95
798.673
790.312
781.867
773.341
764.741
756.072
747.342
738.558
729.721
720.827
711.881
702.888
693.85
684.768
675.644
666.477
657.268
648.016
638.72
629.381
619.997
610.568
601.092
591.569
581.999
572.381
562.711
552.983
543.189
533.31
523.318
513.172
1523.14
1522.87
1522.47
1522.01
1521.5
1520.95
1520.33
1519.64
1518.88
1518.03
1517.09
1516.07
1514.95
1513.74
1512.44
1511.05
1509.57
1508
1506.33
1504.58
1502.74
1500.81
1498.79
1496.68
1494.49
1492.22
1489.86
1487.42
1484.9
1482.31
1479.64
1476.89
1474.07
1471.19
1468.23
1465.21
1462.12
1458.97
1455.76
1452.48
1449.15
1445.76
1442.31
1438.81
1435.25
1431.63
1427.96
1424.23
1420.45
1416.61
1412.72
1408.78
1404.79
1400.75
1396.65
1392.48
1388.25
1383.96
1379.6
1375.19
1370.71
1366.18
1361.58
1356.91
1352.18
1347.39
1342.53
1337.61
1332.61
1327.55
1322.42
1317.21
1311.93
1306.58
1301.15
1295.63
1290.04
1284.37
1278.61
1272.77
1266.84
1260.82
1254.72
1248.54
1242.28
1235.95
1229.55
1223.11
1216.62
1210.08
1203.48
1196.83
1190.15
1183.46
1176.75
1170.06
1163.39
1156.73
1150.11
1143.51
1136.95
1130.4
1123.88
1117.37
1110.88
1104.38
1097.89
1091.38
1084.87
1078.34
1071.8
1065.24
1058.65
1052.05
1045.43
1038.79
1032.13
1025.46
1018.77
1012.08
1005.36
998.643
991.921
985.192
978.423
971.604
964.742
957.84
950.895
943.905
936.868
929.78
922.638
915.439
908.175
900.84
893.425
885.922
878.328
870.642
862.871
855.029
847.127
839.177
831.184
823.143
815.045
806.878
798.629
790.292
781.865
773.354
764.765
756.105
747.382
738.605
729.774
720.886
711.944
702.954
693.918
684.839
675.715
666.549
657.339
648.085
638.786
629.442
620.05
610.611
601.121
591.58
581.986
572.338
562.628
552.849
542.989
533.029
522.937
512.682
1528.72
1528.4
1527.93
1527.38
1526.79
1526.13
1525.42
1524.63
1523.77
1522.83
1521.79
1520.68
1519.47
1518.18
1516.79
1515.32
1513.76
1512.11
1510.38
1508.55
1506.64
1504.64
1502.55
1500.38
1498.12
1495.78
1493.36
1490.86
1488.28
1485.62
1482.88
1480.07
1477.19
1474.23
1471.21
1468.11
1464.96
1461.73
1458.44
1455.1
1451.69
1448.22
1444.69
1441.11
1437.47
1433.77
1430.01
1426.21
1422.34
1418.43
1414.46
1410.44
1406.37
1402.25
1398.08
1393.83
1389.53
1385.16
1380.73
1376.24
1371.7
1367.09
1362.41
1357.68
1352.88
1348.02
1343.09
1338.1
1333.05
1327.92
1322.73
1317.47
1312.13
1306.73
1301.25
1295.7
1290.07
1284.36
1278.58
1272.72
1266.78
1260.76
1254.67
1248.51
1242.28
1235.99
1229.65
1223.26
1216.82
1210.32
1203.78
1197.19
1190.57
1183.93
1177.29
1170.65
1164.02
1157.4
1150.8
1144.23
1137.67
1131.14
1124.62
1118.1
1111.6
1105.09
1098.57
1092.05
1085.52
1078.96
1072.39
1065.8
1059.19
1052.56
1045.91
1039.24
1032.55
1025.85
1019.13
1012.4
1005.66
998.902
992.148
985.386
978.585
971.73
964.83
957.89
950.906
943.877
936.801
929.675
922.498
915.264
907.971
900.611
893.179
885.666
878.069
870.388
862.628
854.802
846.921
838.996
831.03
823.018
814.951
806.813
798.591
790.278
781.87
773.374
764.796
756.146
747.43
738.66
729.835
720.953
712.015
703.029
693.996
684.918
675.796
666.63
657.42
648.164
638.862
629.512
620.113
610.663
601.159
591.6
581.982
572.303
562.554
552.724
542.8
532.761
522.579
512.223
1534.67
1534.31
1533.79
1533.18
1532.51
1531.77
1530.96
1530.08
1529.12
1528.08
1526.95
1525.74
1524.43
1523.04
1521.57
1520.01
1518.36
1516.62
1514.8
1512.89
1510.9
1508.82
1506.66
1504.41
1502.08
1499.67
1497.17
1494.6
1491.94
1489.21
1486.4
1483.51
1480.56
1477.53
1474.43
1471.26
1468.02
1464.72
1461.36
1457.93
1454.44
1450.89
1447.28
1443.61
1439.89
1436.11
1432.27
1428.38
1424.44
1420.44
1416.39
1412.29
1408.14
1403.94
1399.69
1395.37
1390.99
1386.54
1382.04
1377.48
1372.86
1368.17
1363.43
1358.62
1353.75
1348.82
1343.83
1338.77
1333.65
1328.47
1323.22
1317.9
1312.51
1307.06
1301.53
1295.94
1290.27
1284.54
1278.73
1272.85
1266.9
1260.88
1254.79
1248.64
1242.44
1236.18
1229.88
1223.52
1217.11
1210.65
1204.14
1197.6
1191.03
1184.44
1177.84
1171.24
1164.65
1158.07
1151.49
1144.94
1138.4
1131.87
1125.35
1118.83
1112.32
1105.8
1099.28
1092.73
1086.18
1079.6
1073
1066.39
1059.75
1053.09
1046.41
1039.71
1032.99
1026.26
1019.51
1012.75
1005.97
999.189
992.403
985.611
978.778
971.889
964.954
957.976
950.955
943.889
936.775
929.614
922.401
915.136
907.814
900.43
892.98
885.456
877.854
870.175
862.424
854.61
846.746
838.84
830.897
822.911
814.87
806.759
798.562
790.271
781.883
773.402
764.836
756.194
747.487
738.723
729.905
721.029
712.096
703.112
694.082
685.007
675.887
666.721
657.511
648.253
638.948
629.593
620.186
610.726
601.208
591.63
581.988
572.278
562.49
552.611
542.626
532.514
522.246
511.798
1541.08
1540.68
1540.12
1539.46
1538.72
1537.9
1537
1536.02
1534.96
1533.82
1532.58
1531.26
1529.85
1528.36
1526.78
1525.12
1523.37
1521.54
1519.63
1517.63
1515.54
1513.37
1511.12
1508.79
1506.37
1503.88
1501.3
1498.64
1495.9
1493.09
1490.2
1487.23
1484.19
1481.08
1477.9
1474.65
1471.33
1467.94
1464.5
1460.98
1457.41
1453.78
1450.08
1446.33
1442.52
1438.65
1434.73
1430.76
1426.73
1422.65
1418.51
1414.33
1410.1
1405.83
1401.49
1397.1
1392.64
1388.12
1383.54
1378.9
1374.2
1369.44
1364.62
1359.75
1354.81
1349.81
1344.75
1339.63
1334.44
1329.2
1323.89
1318.51
1313.07
1307.57
1302
1296.36
1290.66
1284.89
1279.06
1273.16
1267.19
1261.16
1255.08
1248.95
1242.76
1236.52
1230.23
1223.89
1217.49
1211.06
1204.58
1198.07
1191.54
1184.98
1178.42
1171.86
1165.29
1158.73
1152.18
1145.65
1139.12
1132.6
1126.08
1119.57
1113.05
1106.53
1099.99
1093.43
1086.86
1080.26
1073.64
1066.99
1060.33
1053.64
1046.93
1040.2
1033.46
1026.69
1019.92
1013.13
1006.32
999.504
992.688
985.867
979.004
972.083
965.114
958.102
951.046
943.943
936.795
929.598
922.353
915.056
907.706
900.3
892.831
885.295
877.687
870.008
862.262
854.457
846.605
838.715
830.79
822.825
814.806
806.718
798.545
790.275
781.904
773.438
764.884
756.252
747.552
738.795
729.984
721.114
712.185
703.205
694.178
685.106
675.987
666.823
657.612
648.353
639.045
629.685
620.271
610.8
601.269
591.673
582.007
572.267
562.44
552.513
542.47
532.288
521.941
511.409
1548.05
1547.64
1547.05
1546.33
1545.5
1544.59
1543.59
1542.5
1541.33
1540.06
1538.71
1537.27
1535.75
1534.14
1532.45
1530.67
1528.81
1526.87
1524.85
1522.75
1520.56
1518.29
1515.94
1513.51
1510.99
1508.4
1505.73
1502.98
1500.15
1497.24
1494.26
1491.2
1488.08
1484.88
1481.61
1478.27
1474.86
1471.39
1467.86
1464.26
1460.59
1456.87
1453.09
1449.25
1445.35
1441.4
1437.39
1433.33
1429.22
1425.05
1420.83
1416.56
1412.25
1407.9
1403.49
1399.01
1394.48
1389.88
1385.22
1380.5
1375.73
1370.9
1366.01
1361.06
1356.05
1350.98
1345.85
1340.66
1335.42
1330.11
1324.74
1319.31
1313.82
1308.26
1302.64
1296.97
1291.22
1285.42
1279.56
1273.64
1267.66
1261.63
1255.54
1249.41
1243.22
1236.98
1230.69
1224.35
1217.96
1211.54
1205.09
1198.6
1192.09
1185.57
1179.03
1172.49
1165.95
1159.41
1152.88
1146.36
1139.84
1133.33
1126.82
1120.31
1113.79
1107.26
1100.71
1094.14
1087.55
1080.93
1074.29
1067.62
1060.93
1054.21
1047.48
1040.72
1033.95
1027.15
1020.35
1013.53
1006.69
999.848
993.004
986.155
979.265
972.314
965.313
958.269
951.179
944.043
936.861
929.631
922.354
915.028
907.651
900.221
892.734
885.186
877.571
869.889
862.145
854.346
846.503
838.625
830.714
822.764
814.764
806.695
798.541
790.289
781.936
773.484
764.941
756.319
747.627
738.876
730.072
721.208
712.284
703.309
694.285
685.215
676.099
666.935
657.725
648.465
639.154
629.789
620.368
610.887
601.342
591.729
582.04
572.27
562.407
552.435
542.336
532.089
521.669
511.056
1556.01
1555.51
1554.79
1553.92
1552.96
1551.9
1550.77
1549.54
1548.23
1546.83
1545.35
1543.78
1542.12
1540.39
1538.56
1536.66
1534.68
1532.61
1530.47
1528.25
1525.94
1523.56
1521.1
1518.56
1515.94
1513.24
1510.47
1507.61
1504.69
1501.68
1498.61
1495.46
1492.23
1488.94
1485.58
1482.15
1478.65
1475.09
1471.46
1467.77
1464.02
1460.21
1456.34
1452.41
1448.42
1444.38
1440.29
1436.14
1431.94
1427.68
1423.38
1419.03
1414.63
1410.19
1405.71
1401.16
1396.54
1391.86
1387.13
1382.33
1377.48
1372.58
1367.61
1362.59
1357.51
1352.37
1347.17
1341.92
1336.6
1331.23
1325.8
1320.31
1314.77
1309.16
1303.5
1297.77
1291.99
1286.16
1280.27
1274.32
1268.32
1262.27
1256.17
1250.01
1243.8
1237.55
1231.25
1224.91
1218.53
1212.12
1205.67
1199.2
1192.71
1186.2
1179.68
1173.16
1166.64
1160.11
1153.6
1147.09
1140.58
1134.08
1127.58
1121.07
1114.55
1108.01
1101.45
1094.87
1088.26
1081.63
1074.96
1068.27
1061.55
1054.81
1048.05
1041.26
1034.46
1027.64
1020.81
1013.96
1007.1
1000.22
993.353
986.48
979.564
972.586
965.555
958.48
951.358
944.19
936.976
929.715
922.407
915.053
907.65
900.198
892.693
885.13
877.507
869.822
862.077
854.281
846.444
838.573
830.671
822.733
814.746
806.693
798.555
790.32
781.982
773.543
765.011
756.398
747.714
738.97
730.172
721.315
712.396
703.424
694.404
685.337
676.223
667.061
657.851
648.59
639.277
629.908
620.48
610.99
601.432
591.801
582.09
572.293
562.395
552.379
542.228
531.92
521.431
510.743
1564.59
1563.95
1563.04
1561.98
1560.83
1559.6
1558.3
1556.91
1555.45
1553.89
1552.26
1550.54
1548.74
1546.85
1544.89
1542.85
1540.73
1538.53
1536.26
1533.91
1531.48
1528.98
1526.4
1523.75
1521.02
1518.22
1515.34
1512.39
1509.36
1506.26
1503.09
1499.84
1496.53
1493.14
1489.69
1486.17
1482.58
1478.93
1475.22
1471.44
1467.6
1463.7
1459.74
1455.72
1451.65
1447.52
1443.34
1439.1
1434.82
1430.48
1426.09
1421.65
1417.17
1412.66
1408.09
1403.46
1398.77
1394.01
1389.2
1384.33
1379.41
1374.42
1369.39
1364.29
1359.14
1353.93
1348.66
1343.34
1337.96
1332.53
1327.04
1321.49
1315.89
1310.23
1304.52
1298.75
1292.93
1287.06
1281.13
1275.14
1269.11
1263.02
1256.89
1250.71
1244.48
1238.21
1231.9
1225.55
1219.17
1212.76
1206.32
1199.85
1193.37
1186.87
1180.36
1173.85
1167.34
1160.83
1154.32
1147.82
1141.33
1134.83
1128.33
1121.83
1115.31
1108.77
1102.2
1095.61
1088.99
1082.33
1075.65
1068.93
1062.19
1055.42
1048.63
1041.82
1034.99
1028.15
1021.29
1014.41
1007.52
1000.62
993.725
986.829
979.89
972.885
965.828
958.723
951.572
944.375
937.13
929.839
922.503
915.121
907.694
900.22
892.697
885.121
877.488
869.797
862.051
854.255
846.42
838.553
830.658
822.728
814.751
806.71
798.585
790.363
782.038
773.611
765.089
756.485
747.808
739.071
730.281
721.43
712.515
703.548
694.532
685.468
676.356
667.196
657.987
648.726
639.41
630.038
620.604
611.104
601.534
591.887
582.156
572.332
562.4
552.344
542.145
531.78
521.225
510.467
1572.95
1572.22
1571.17
1569.95
1568.63
1567.24
1565.78
1564.24
1562.62
1560.91
1559.13
1557.26
1555.31
1553.28
1551.17
1548.98
1546.72
1544.39
1541.98
1539.5
1536.95
1534.33
1531.63
1528.86
1526.02
1523.11
1520.12
1517.06
1513.93
1510.73
1507.46
1504.12
1500.71
1497.24
1493.69
1490.08
1486.41
1482.67
1478.87
1475
1471.08
1467.1
1463.06
1458.96
1454.8
1450.59
1446.33
1442.01
1437.64
1433.23
1428.76
1424.24
1419.69
1415.09
1410.46
1405.76
1400.99
1396.16
1391.28
1386.34
1381.34
1376.29
1371.18
1366.01
1360.79
1355.52
1350.19
1344.8
1339.36
1333.87
1328.32
1322.72
1317.06
1311.35
1305.59
1299.77
1293.9
1287.98
1282.01
1275.99
1269.92
1263.8
1257.63
1251.43
1245.18
1238.89
1232.57
1226.21
1219.82
1213.41
1206.97
1200.5
1194.02
1187.53
1181.02
1174.52
1168.01
1161.51
1155.01
1148.52
1142.03
1135.54
1129.05
1122.55
1116.03
1109.49
1102.92
1096.31
1089.68
1083
1076.3
1069.56
1062.8
1056.01
1049.19
1042.36
1035.5
1028.63
1021.74
1014.84