/*--------------------------------*- C++ -*----------------------------------*\
  =========                 |
  \\      /  F ield         | OpenFOAM: The Open Source CFD Toolbox
   \\    /   O peration     | Website:  https://openfoam.org
    \\  /    A nd           | Version:  9
     \\/     M anipulation  |
\*---------------------------------------------------------------------------*/
FoamFile
{
    format      ascii;
    class       surfaceScalarField;
    location    "0.1";
    object      phi;
}
// * * * * * * * * * * * * * * * * * * * * * * * * * * * * * * * * * * * * * //

dimensions      [0 3 -1 0 0 0 0];

internalField   nonuniform List<scalar> 
24170
(
3.43991e-06
-2.51506e-07
3.84461e-06
-4.04698e-07
3.99432e-06
-1.49712e-07
4.05452e-06
-6.02014e-08
4.08271e-06
-2.81874e-08
4.11309e-06
-3.03753e-08
4.15713e-06
-4.4047e-08
4.21876e-06
-6.16256e-08
4.30012e-06
-8.13588e-08
4.40319e-06
-1.03072e-07
4.53085e-06
-1.27658e-07
4.68818e-06
-1.57332e-07
4.88468e-06
-1.965e-07
5.13878e-06
-2.541e-07
5.48859e-06
-3.49805e-07
6.01939e-06
-5.30805e-07
6.93444e-06
-9.15047e-07
-2.94608e-06
9.88052e-06
3.81537e-06
-6.49625e-07
4.1757e-06
-7.65032e-07
4.3458e-06
-3.1981e-07
4.44846e-06
-1.62865e-07
4.52577e-06
-1.05489e-07
4.60252e-06
-1.07128e-07
4.69263e-06
-1.34156e-07
4.80279e-06
-1.7179e-07
4.93664e-06
-2.15211e-07
5.09737e-06
-2.63797e-07
5.28925e-06
-3.19544e-07
5.51907e-06
-3.87148e-07
5.79811e-06
-4.75536e-07
6.14615e-06
-6.02147e-07
6.60055e-06
-8.04203e-07
7.24029e-06
-1.17054e-06
8.27081e-06
-1.94556e-06
-4.08347e-06
9.40819e-06
3.75059e-06
-7.37696e-07
3.87387e-06
-8.88314e-07
3.9845e-06
-4.30436e-07
4.07139e-06
-2.49761e-07
4.15181e-06
-1.8591e-07
4.23611e-06
-1.91426e-07
4.33222e-06
-2.30263e-07
4.44503e-06
-2.84601e-07
4.57766e-06
-3.47842e-07
4.73296e-06
-4.19098e-07
4.91463e-06
-5.01209e-07
5.12819e-06
-6.00716e-07
5.38236e-06
-7.29705e-07
5.69103e-06
-9.10817e-07
6.07605e-06
-1.18922e-06
6.56773e-06
-1.66222e-06
7.17339e-06
-2.55122e-06
-4.29339e-06
7.38331e-06
3.78145e-06
-5.93762e-07
3.71906e-06
-8.25916e-07
3.76131e-06
-4.72689e-07
3.82427e-06
-3.12719e-07
3.89943e-06
-2.61074e-07
3.98466e-06
-2.76659e-07
4.08196e-06
-3.27557e-07
4.19379e-06
-3.96428e-07
4.32228e-06
-4.76339e-07
4.46964e-06
-5.6645e-07
4.63859e-06
-6.70158e-07
4.8329e-06
-7.9503e-07
5.05775e-06
-9.54556e-07
5.31953e-06
-1.1726e-06
5.6229e-06
-1.49259e-06
5.95643e-06
-1.99575e-06
6.23621e-06
-2.831e-06
-4.15653e-06
6.09935e-06
3.928e-06
-3.14639e-07
3.74153e-06
-6.39444e-07
3.72224e-06
-4.53399e-07
3.75982e-06
-3.50296e-07
3.82622e-06
-3.27472e-07
3.90943e-06
-3.59874e-07
4.00616e-06
-4.2429e-07
4.11639e-06
-5.06653e-07
4.24108e-06
-6.01028e-07
4.38163e-06
-7.06999e-07
4.53977e-06
-8.28303e-07
4.71751e-06
-9.7277e-07
4.91663e-06
-1.15368e-06
5.13688e-06
-1.39285e-06
5.37019e-06
-1.7259e-06
5.58432e-06
-2.20988e-06
5.68075e-06
-2.92743e-06
-3.87579e-06
5.40001e-06
4.16209e-06
3.23627e-08
3.89392e-06
-3.71282e-07
3.81856e-06
-3.78031e-07
3.82725e-06
-3.58994e-07
3.87995e-06
-3.80173e-07
3.95722e-06
-4.37141e-07
4.05097e-06
-5.18035e-07
4.15841e-06
-6.14094e-07
4.27896e-06
-7.21575e-07
4.41289e-06
-8.40934e-07
4.56072e-06
-9.76136e-07
4.7226e-06
-1.13465e-06
4.89718e-06
-1.32825e-06
5.07895e-06
-1.57462e-06
5.25214e-06
-1.89908e-06
5.37767e-06
-2.33541e-06
5.36766e-06
-2.91742e-06
-3.55173e-06
5.04359e-06
4.46263e-06
4.02457e-07
4.14242e-06
-5.10748e-08
4.01709e-06
-2.52703e-07
3.99476e-06
-3.36659e-07
4.02961e-06
-4.15022e-07
4.09705e-06
-5.04586e-07
4.18492e-06
-6.0591e-07
4.28766e-06
-7.1683e-07
4.40282e-06
-8.36739e-07
4.52928e-06
-9.67392e-07
4.6661e-06
-1.11295e-06
4.81152e-06
-1.28008e-06
4.96149e-06
-1.47822e-06
5.10682e-06
-1.71994e-06
5.22812e-06
-2.02039e-06
5.28725e-06
-2.39454e-06
5.21405e-06
-2.84422e-06
-3.23369e-06
4.89601e-06
4.81707e-06
7.64972e-07
4.46719e-06
2.98799e-07
4.29889e-06
-8.43993e-08
4.24499e-06
-2.8276e-07
4.2589e-06
-4.28934e-07
4.31297e-06
-5.58652e-07
4.39181e-06
-6.84756e-07
4.48727e-06
-8.12293e-07
4.59497e-06
-9.44432e-07
4.71216e-06
-1.08459e-06
4.83637e-06
-1.23716e-06
4.96403e-06
-1.40774e-06
5.08895e-06
-1.60314e-06
5.19981e-06
-1.83081e-06
5.27665e-06
-2.09723e-06
5.28615e-06
-2.40404e-06
5.17687e-06
-2.73494e-06
-2.94186e-06
4.88504e-06
5.21771e-06
1.0986e-06
4.85587e-06
6.60644e-07
4.65233e-06
1.19138e-07
4.56792e-06
-1.98346e-07
4.559e-06
-4.20016e-07
4.59669e-06
-5.96342e-07
4.66333e-06
-7.51399e-07
4.74853e-06
-8.97495e-07
4.84603e-06
-1.04193e-06
4.95148e-06
-1.19004e-06
5.06085e-06
-1.34653e-06
5.16908e-06
-1.51596e-06
5.26848e-06
-1.70255e-06
5.34702e-06
-1.90935e-06
5.38615e-06
-2.13636e-06
5.35913e-06
-2.37702e-06
5.23121e-06
-2.60702e-06
-2.68123e-06
4.97059e-06
5.64093e-06
1.40745e-06
5.27024e-06
1.03133e-06
5.03765e-06
3.51727e-07
4.92624e-06
-8.69398e-08
4.89515e-06
-3.88923e-07
4.91546e-06
-6.16653e-07
4.96809e-06
-8.04027e-07
5.04093e-06
-9.70336e-07
5.12612e-06
-1.12712e-06
5.21789e-06
-1.2818e-06
5.31092e-06
-1.43956e-06
5.39899e-06
-1.60404e-06
5.47377e-06
-1.77733e-06
5.5236e-06
-1.95918e-06
5.53263e-06
-2.14538e-06
5.48093e-06
-2.32532e-06
5.34674e-06
-2.47283e-06
-2.45527e-06
5.12077e-06
5.99657e-06
1.7877e-06
5.57036e-06
1.45753e-06
5.30751e-06
6.14579e-07
5.17616e-06
4.44139e-08
5.12885e-06
-3.41613e-07
5.13566e-06
-6.23468e-07
5.17644e-06
-8.44808e-07
5.23803e-06
-1.03192e-06
5.31152e-06
-1.20062e-06
5.39021e-06
-1.36049e-06
5.468e-06
-1.51734e-06
5.53821e-06
-1.67425e-06
5.59269e-06
-1.83181e-06
5.62122e-06
-1.98771e-06
5.61149e-06
-2.13565e-06
5.55021e-06
-2.26403e-06
5.42604e-06
-2.34866e-06
-2.28544e-06
5.2562e-06
5.41326e-06
2.11527e-06
5.05265e-06
1.81815e-06
4.82669e-06
8.40538e-07
4.69609e-06
1.75011e-07
4.63715e-06
-2.82668e-07
4.62405e-06
-6.1037e-07
4.63954e-06
-8.60301e-07
4.67213e-06
-1.06451e-06
4.71383e-06
-1.24231e-06
4.75848e-06
-1.40515e-06
4.80064e-06
-1.5595e-06
4.83472e-06
-1.70833e-06
4.85456e-06
-1.85165e-06
4.85326e-06
-1.98641e-06
4.82377e-06
-2.10616e-06
4.76085e-06
-2.20111e-06
4.66593e-06
-2.25373e-06
-2.12954e-06
4.51003e-06
6.72768e-06
2.38575e-06
6.3536e-06
2.19222e-06
6.10612e-06
1.08802e-06
5.9644e-06
3.16737e-07
5.89261e-06
-2.10883e-07
5.86694e-06
-5.84697e-07
5.87053e-06
-8.63895e-07
5.89156e-06
-1.08553e-06
5.92131e-06
-1.27206e-06
5.95282e-06
-1.43666e-06
5.97986e-06
-1.58654e-06
5.9963e-06
-1.72478e-06
5.99588e-06
-1.85122e-06
5.97235e-06
-1.96288e-06
5.92031e-06
-2.05412e-06
5.837e-06
-2.1178e-06
5.72355e-06
-2.14028e-06
-1.98059e-06
5.5746e-06
8.54242e-06
2.37418e-06
8.33541e-06
2.39923e-06
8.13845e-06
1.28497e-06
8.00315e-06
4.52039e-07
7.91628e-06
-1.24016e-07
7.866e-06
-5.34418e-07
7.84084e-06
-8.38727e-07
7.8309e-06
-1.0756e-06
7.82785e-06
-1.26901e-06
7.82437e-06
-1.43317e-06
7.81372e-06
-1.57589e-06
7.78947e-06
-1.70053e-06
7.74552e-06
-1.80727e-06
7.67647e-06
-1.89384e-06
7.57851e-06
-1.95616e-06
7.4507e-06
-1.98999e-06
7.29361e-06
-1.9832e-06
-1.79408e-06
7.1071e-06
1.06803e-05
2.09309e-06
1.07148e-05
2.36469e-06
1.06313e-05
1.36851e-06
1.05331e-05
5.50239e-07
1.04426e-05
-3.3461e-08
1.03657e-05
-4.57603e-07
1.03011e-05
-7.74114e-07
1.0244e-05
-1.01847e-06
1.01885e-05
-1.21351e-06
1.01285e-05
-1.37319e-06
1.0058e-05
-1.5054e-06
9.97132e-06
-1.61383e-06
9.86338e-06
-1.69933e-06
9.73037e-06
-1.76083e-06
9.57038e-06
-1.79617e-06
9.38405e-06
-1.80366e-06
9.17227e-06
-1.77142e-06
-1.56413e-06
8.94232e-06
1.31334e-05
1.63648e-06
1.34249e-05
2.07316e-06
1.35042e-05
1.28927e-06
1.34815e-05
5.72934e-07
1.34102e-05
3.78583e-08
1.3316e-05
-3.63445e-07
1.32104e-05
-6.68514e-07
1.30969e-05
-9.04924e-07
1.29747e-05
-1.09136e-06
1.28413e-05
-1.23975e-06
1.2693e-05
-1.35717e-06
1.25266e-05
-1.44735e-06
1.23391e-05
-1.51186e-06
1.21292e-05
-1.55092e-06
1.18972e-05
-1.56422e-06
1.16456e-05
-1.55205e-06
1.13772e-05
-1.50301e-06
-1.29671e-06
1.11098e-05
1.59894e-05
1.10024e-06
1.65152e-05
1.54735e-06
1.67793e-05
1.02519e-06
1.68613e-05
4.90967e-07
1.6832e-05
6.71404e-08
1.6734e-05
-2.6548e-07
1.65921e-05
-5.26592e-07
1.64197e-05
-7.32518e-07
1.62235e-05
-8.95156e-07
1.60063e-05
-1.02257e-06
1.57691e-05
-1.11992e-06
1.55121e-05
-1.19036e-06
1.5236e-05
-1.23575e-06
1.49423e-05
-1.25728e-06
1.46341e-05
-1.25595e-06
1.43153e-05
-1.23328e-06
1.39915e-05
-1.17926e-06
-9.95917e-07
1.36908e-05
1.94013e-05
5.36598e-07
2.01257e-05
8.22929e-07
2.05658e-05
5.85083e-07
2.07566e-05
3.00139e-07
2.07773e-05
4.65217e-08
2.06824e-05
-1.70621e-07
2.05084e-05
-3.52646e-07
2.02787e-05
-5.02817e-07
2.0008e-05
-6.24382e-07
1.97054e-05
-7.20032e-07
1.93774e-05
-7.91881e-07
1.90286e-05
-8.41609e-07
1.86636e-05
-8.7067e-07
1.82867e-05
-8.80474e-07
1.79033e-05
-8.72532e-07
1.75187e-05
-8.48638e-07
1.71406e-05
-8.01148e-07
-6.62662e-07
1.68073e-05
2.355e-05
-5.00796e-08
2.43927e-05
-1.97719e-08
2.49378e-05
3.9962e-08
2.51906e-05
4.74237e-08
2.52332e-05
3.89177e-09
2.5128e-05
-6.54842e-08
2.49195e-05
-1.44075e-07
2.46377e-05
-2.21008e-07
2.4303e-05
-2.89737e-07
2.39296e-05
-3.46624e-07
2.35277e-05
-3.89925e-07
2.31052e-05
-4.19136e-07
2.26691e-05
-4.34588e-07
2.22258e-05
-4.37193e-07
2.17816e-05
-4.28288e-07
2.13421e-05
-4.09202e-07
2.09163e-05
-3.75282e-07
-3.04212e-07
2.05578e-05
1.71065e-05
-3.45868e-07
1.74948e-05
-4.08077e-07
1.77132e-05
-1.78397e-07
1.77819e-05
-2.13064e-08
1.77461e-05
3.9707e-08
1.76378e-05
4.28175e-08
1.74788e-05
1.48836e-08
1.72839e-05
-2.60488e-08
1.70628e-05
-6.86936e-08
1.68226e-05
-1.06418e-07
1.65684e-05
-1.35731e-07
1.63045e-05
-1.55177e-07
1.60345e-05
-1.64635e-07
1.57622e-05
-1.64851e-07
1.5491e-05
-1.5712e-07
1.52245e-05
-1.42664e-07
1.49687e-05
-1.1952e-07
-8.68295e-08
1.47513e-05
1.48201e-05
-5.31402e-07
1.49867e-05
-5.74692e-07
1.50395e-05
-2.31154e-07
1.50135e-05
4.64278e-09
1.49377e-05
1.15556e-07
1.48291e-05
1.51348e-07
1.46981e-05
1.45887e-07
1.45507e-05
1.21406e-07
1.43905e-05
9.14639e-08
1.42202e-05
6.39202e-08
1.40417e-05
4.27844e-08
1.38568e-05
2.97196e-08
1.36673e-05
2.48708e-08
1.3475e-05
2.7425e-08
1.32819e-05
3.59688e-08
1.309e-05
4.92021e-08
1.2903e-05
6.74858e-08
7.54321e-08
1.27408e-05
1.28432e-05
-6.34517e-07
1.28527e-05
-5.84104e-07
1.27948e-05
-1.73246e-07
1.27155e-05
8.39114e-08
1.26293e-05
2.01699e-07
1.25393e-05
2.4142e-07
1.24451e-05
2.40065e-07
1.23465e-05
2.20003e-07
1.22431e-05
1.94852e-07
1.21344e-05
1.72598e-07
1.20203e-05
1.56878e-07
1.1901e-05
1.49062e-07
1.17768e-05
1.49066e-07
1.16483e-05
1.55936e-07
1.15161e-05
1.68159e-07
1.13809e-05
1.84409e-07
1.12439e-05
2.04449e-07
1.99263e-07
1.11201e-05
1.11041e-05
-6.47732e-07
1.09857e-05
-4.65648e-07
1.08574e-05
-4.4959e-08
1.07601e-05
1.81207e-07
1.06892e-05
2.72615e-07
1.06335e-05
2.97143e-07
1.05835e-05
2.90052e-07
1.05332e-05
2.70319e-07
1.04799e-05
2.48123e-07
1.04229e-05
2.29575e-07
1.03615e-05
2.18338e-07
1.0295e-05
2.15489e-07
1.02234e-05
2.20709e-07
1.01463e-05
2.32997e-07
1.00635e-05
2.50956e-07
9.97443e-06
2.73508e-07
9.87812e-06
3.00754e-07
2.93237e-07
9.78415e-06
9.57007e-06
-5.62583e-07
9.35684e-06
-2.52421e-07
9.20125e-06
1.10633e-07
9.1172e-06
2.65254e-07
9.07816e-06
3.11659e-07
9.06257e-06
3.12732e-07
9.05582e-06
2.96804e-07
9.04885e-06
2.77282e-07
9.03723e-06
2.5974e-07
9.02034e-06
2.46466e-07
8.99885e-06
2.39835e-07
8.97276e-06
2.41572e-07
8.9418e-06
2.51675e-07
8.90551e-06
2.69284e-07
8.86301e-06
2.93459e-07
8.81264e-06
3.23879e-07
8.75122e-06
3.62166e-07
3.61791e-07
8.68267e-06
8.23217e-06
-3.89402e-07
7.97227e-06
7.48132e-09
7.83161e-06
2.51297e-07
7.78234e-06
3.14518e-07
7.78124e-06
3.12767e-07
7.80171e-06
2.92258e-07
7.82832e-06
2.70198e-07
7.85309e-06
2.52505e-07
7.87219e-06
2.40642e-07
7.88427e-06
2.34392e-07
7.89076e-06
2.33342e-07
7.89335e-06
2.3898e-07
7.89237e-06
2.52654e-07
7.88754e-06
2.74112e-07
7.87787e-06
3.03133e-07
7.86094e-06
3.4081e-07
7.8311e-06
3.92006e-07
4.07361e-07
7.78553e-06
7.09422e-06
-1.66341e-07
6.84735e-06
2.54359e-07
6.75554e-06
3.43102e-07
6.75037e-06
3.19689e-07
6.78322e-06
2.79916e-07
6.8291e-06
2.46375e-07
6.87629e-06
2.23015e-07
6.9195e-06
2.09288e-07
6.95672e-06
2.03428e-07
6.98764e-06
2.03472e-07
7.01291e-06
2.08067e-07
7.03483e-06
2.17059e-07
7.05522e-06
2.32269e-07
7.07431e-06
2.55022e-07
7.09155e-06
2.85893e-07
7.10457e-06
3.27786e-07
7.10539e-06
3.91187e-07
4.30938e-07
7.08182e-06
6.16631e-06
3.74171e-08
5.99835e-06
4.2232e-07
5.97696e-06
3.64486e-07
6.01466e-06
2.81996e-07
6.07198e-06
2.22595e-07
6.13137e-06
1.86981e-07
6.18683e-06
1.67556e-07
6.23729e-06
1.58823e-07
6.28283e-06
1.5789e-07
6.32391e-06
1.62397e-07
6.36134e-06
1.70631e-07
6.39667e-06
1.81729e-07
6.43231e-06
1.96631e-07
6.46973e-06
2.17606e-07
6.5093e-06
2.46324e-07
6.55011e-06
2.86971e-07
6.5835e-06
3.578e-07
4.31801e-07
6.58264e-06
5.45688e-06
1.26001e-07
5.43503e-06
4.44165e-07
5.49479e-06
3.0473e-07
5.57077e-06
2.0602e-07
5.64405e-06
1.49315e-07
5.70858e-06
1.22445e-07
5.76528e-06
1.10863e-07
5.81659e-06
1.07513e-07
5.86476e-06
1.09717e-07
5.91106e-06
1.16102e-07
5.95656e-06
1.25122e-07
6.0022e-06
1.36091e-07
6.04989e-06
1.48941e-07
6.1021e-06
1.65401e-07
6.16057e-06
1.87853e-07
6.22753e-06
2.20011e-07
6.29886e-06
2.86463e-07
4.03771e-07
6.32689e-06
4.94807e-06
5.53782e-09
5.12817e-06
2.64065e-07
5.26194e-06
1.70959e-07
5.364e-06
1.03966e-07
5.44333e-06
6.99778e-08
5.50718e-06
5.86034e-08
5.56266e-06
5.53786e-08
5.61444e-06
5.57287e-08
5.66547e-06
5.86946e-08
5.71781e-06
6.37587e-08
5.77256e-06
7.03759e-08
5.83077e-06
7.78789e-08
5.89377e-06
8.59389e-08
5.96344e-06
9.57359e-08
6.04283e-06
1.08461e-07
6.1377e-06
1.25141e-07
6.2581e-06
1.66061e-07
3.01862e-07
6.36001e-06
4.20821e-06
4.47228e-06
4.64324e-06
4.7472e-06
4.81718e-06
4.87579e-06
4.93116e-06
4.98689e-06
5.04559e-06
5.10935e-06
5.17972e-06
5.2576e-06
5.34354e-06
5.43928e-06
5.54774e-06
5.67288e-06
5.83894e-06
6.1408e-06
3.6122e-07
-3.6122e-07
8.15635e-07
-4.54414e-07
1.24361e-06
-4.27977e-07
1.63711e-06
-3.93497e-07
2.00207e-06
-3.6496e-07
2.34212e-06
-3.4005e-07
2.66032e-06
-3.18199e-07
2.95811e-06
-2.97792e-07
3.23813e-06
-2.80023e-07
3.50299e-06
-2.64856e-07
3.75625e-06
-2.53264e-07
4.00245e-06
-2.46193e-07
4.24575e-06
-2.433e-07
4.49101e-06
-2.45259e-07
4.73986e-06
-2.4885e-07
4.9919e-06
-2.5204e-07
5.24762e-06
-2.55722e-07
5.50354e-06
-2.55924e-07
5.75507e-06
-2.51525e-07
6.00009e-06
-2.45018e-07
6.2343e-06
-2.34217e-07
6.45364e-06
-2.19339e-07
6.66001e-06
-2.06371e-07
6.85753e-06
-1.97514e-07
7.05811e-06
-2.00578e-07
7.26947e-06
-2.11363e-07
7.44976e-06
-1.80291e-07
7.56538e-06
-1.15621e-07
7.63695e-06
-7.15682e-08
7.67283e-06
-3.58844e-08
7.67292e-06
-8.45287e-11
7.65073e-06
2.21867e-08
7.61498e-06
3.5749e-08
7.57188e-06
4.31056e-08
7.52578e-06
4.60983e-08
7.47973e-06
4.60537e-08
7.43578e-06
4.39469e-08
7.39529e-06
4.04929e-08
7.35907e-06
3.6212e-08
7.3276e-06
3.14702e-08
7.30109e-06
2.65155e-08
7.27958e-06
2.15045e-08
7.26306e-06
1.65246e-08
7.25145e-06
1.16124e-08
7.24468e-06
6.7689e-09
7.24271e-06
1.96795e-09
7.24555e-06
-2.83437e-09
7.25324e-06
-7.69734e-09
7.26594e-06
-1.26952e-08
7.28386e-06
-1.79199e-08
7.30751e-06
-2.36484e-08
7.33706e-06
-2.95507e-08
7.37169e-06
-3.46348e-08
7.41013e-06
-3.84414e-08
7.45201e-06
-4.18747e-08
7.497e-06
-4.49936e-08
7.54494e-06
-4.79337e-08
7.5957e-06
-5.0766e-08
7.64924e-06
-5.35379e-08
7.70552e-06
-5.62787e-08
7.76452e-06
-5.90024e-08
7.82623e-06
-6.17117e-08
7.89064e-06
-6.44006e-08
7.95769e-06
-6.70554e-08
8.02735e-06
-6.96571e-08
8.09953e-06
-7.218e-08
8.17412e-06
-7.45926e-08
8.25098e-06
-7.68574e-08
8.32991e-06
-7.89302e-08
8.41067e-06
-8.07588e-08
8.49295e-06
-8.22845e-08
8.57639e-06
-8.34384e-08
8.66053e-06
-8.41427e-08
8.74484e-06
-8.43087e-08
8.82868e-06
-8.38358e-08
8.91129e-06
-8.26106e-08
8.9918e-06
-8.05055e-08
9.06918e-06
-7.73784e-08
9.14225e-06
-7.30713e-08
9.20966e-06
-6.74112e-08
9.26987e-06
-6.02111e-08
9.32114e-06
-5.12726e-08
9.36154e-06
-4.03938e-08
9.38892e-06
-2.73804e-08
9.40099e-06
-1.20721e-08
9.39538e-06
5.61003e-09
9.36984e-06
2.55467e-08
9.32274e-06
4.71007e-08
9.25456e-06
6.81755e-08
9.17393e-06
8.06363e-08
9.14313e-06
3.0793e-08
9.21555e-06
-7.24117e-08
9.3375e-06
-1.21953e-07
9.44632e-06
-1.08814e-07
9.53504e-06
-8.87218e-08
9.60378e-06
-6.8739e-08
9.65465e-06
-5.0873e-08
9.69023e-06
-3.5577e-08
9.71308e-06
-2.28446e-08
9.72558e-06
-1.25023e-08
9.72989e-06
-4.31187e-09
9.72791e-06
1.98946e-09
9.72124e-06
6.6685e-09
9.71125e-06
9.98869e-09
9.69905e-06
1.22031e-08
9.6855e-06
1.35543e-08
9.67123e-06
1.42706e-08
9.65666e-06
1.45667e-08
9.64202e-06
1.46418e-08
9.62734e-06
1.46806e-08
9.61249e-06
1.48541e-08
9.59717e-06
1.5324e-08
9.58092e-06
1.62512e-08
9.5631e-06
1.78145e-08
9.54286e-06
2.02456e-08
9.51896e-06
2.38933e-08
9.48963e-06
2.93353e-08
9.45206e-06
3.75679e-08
9.41062e-06
4.14475e-08
9.33054e-06
8.00752e-08
9.19635e-06
1.34189e-07
9.07288e-06
1.2347e-07
8.99222e-06
8.06626e-08
8.93498e-06
5.72363e-08
8.88244e-06
5.25453e-08
8.82792e-06
5.45192e-08
8.76702e-06
6.08967e-08
8.69641e-06
7.06111e-08
8.61351e-06
8.29069e-08
8.51624e-06
9.72678e-08
8.40326e-06
1.12983e-07
8.27413e-06
1.29121e-07
8.12958e-06
1.44557e-07
7.97139e-06
1.58184e-07
7.80217e-06
1.69227e-07
7.62472e-06
1.77443e-07
7.44175e-06
1.82966e-07
7.25597e-06
1.85779e-07
7.07078e-06
1.85196e-07
6.89064e-06
1.80134e-07
6.7205e-06
1.70144e-07
6.56465e-06
1.55846e-07
6.42636e-06
1.38292e-07
6.30803e-06
1.18324e-07
6.21107e-06
9.69579e-08
6.1353e-06
7.57745e-08
6.07874e-06
5.65619e-08
6.03807e-06
4.06617e-08
6.00944e-06
2.86313e-08
5.98912e-06
2.03218e-08
5.97396e-06
1.5159e-08
5.96154e-06
1.24197e-08
5.95013e-06
1.14135e-08
5.93859e-06
1.15334e-08
5.92631e-06
1.22798e-08
5.91337e-06
1.29453e-08
5.89958e-06
1.37855e-08
5.8842e-06
1.53813e-08
5.86685e-06
1.73458e-08
5.84743e-06
1.94213e-08
5.82596e-06
2.14694e-08
5.80255e-06
2.34078e-08
5.77736e-06
2.51962e-08
5.75053e-06
2.68272e-08
5.72221e-06
2.83201e-08
5.69249e-06
2.97172e-08
5.66141e-06
3.1081e-08
5.62891e-06
3.24954e-08
5.59484e-06
3.40676e-08
5.55891e-06
3.5936e-08
5.52062e-06
3.82871e-08
5.47924e-06
4.1384e-08
5.43361e-06
4.56243e-08
5.38226e-06
5.13477e-08
5.32261e-06
5.96543e-08
5.24997e-06
7.264e-08
5.15588e-06
9.40851e-08
5.02218e-06
1.33707e-07
4.7995e-06
2.22677e-07
4.9502e-07
4.30448e-06
4.08878e-07
-7.70097e-07
8.45055e-07
-8.90591e-07
1.23272e-06
-8.1564e-07
1.57433e-06
-7.35106e-07
1.88028e-06
-6.70916e-07
2.16116e-06
-6.20924e-07
2.42383e-06
-5.80876e-07
2.67421e-06
-5.48163e-07
2.91687e-06
-5.22688e-07
3.15462e-06
-5.02609e-07
3.38907e-06
-4.87711e-07
3.62111e-06
-4.78231e-07
3.8511e-06
-4.73291e-07
4.07427e-06
-4.6843e-07
4.28673e-06
-4.61314e-07
4.48572e-06
-4.51026e-07
4.66345e-06
-4.33448e-07
4.81444e-06
-4.06919e-07
4.93721e-06
-3.7429e-07
5.03007e-06
-3.3788e-07
5.09612e-06
-3.00268e-07
5.13914e-06
-2.62356e-07
5.15841e-06
-2.2564e-07
5.15463e-06
-1.93731e-07
5.12465e-06
-1.70601e-07
5.07019e-06
-1.56907e-07
5.01983e-06
-1.2993e-07
4.98988e-06
-8.56645e-08
4.96297e-06
-4.46637e-08
4.93929e-06
-1.22006e-08
4.92967e-06
9.53867e-09
4.92837e-06
2.34784e-08
4.93294e-06
3.1182e-08
4.9418e-06
3.42476e-08
4.95389e-06
3.40097e-08
4.96839e-06
3.15494e-08
4.98465e-06
2.76948e-08
5.00209e-06
2.30476e-08
5.02028e-06
1.80242e-08
5.03885e-06
1.28958e-08
5.05754e-06
7.824e-09
5.07616e-06
2.89039e-09
5.09456e-06
-1.87979e-09
5.11268e-06
-6.50047e-09
5.13046e-06
-1.10115e-08
5.1479e-06
-1.54706e-08
5.16501e-06
-1.99479e-08
5.18184e-06
-2.45237e-08
5.19843e-06
-2.92892e-08
5.21486e-06
-3.43491e-08
5.23116e-06
-3.99483e-08
5.24733e-06
-4.57223e-08
5.26401e-06
-5.13165e-08
5.28234e-06
-5.67683e-08
5.30243e-06
-6.19668e-08
5.32443e-06
-6.69931e-08
5.34846e-06
-7.19584e-08
5.37459e-06
-7.69025e-08
5.40292e-06
-8.18641e-08
5.43351e-06
-8.68725e-08
5.46646e-06
-9.19467e-08
5.50184e-06
-9.70958e-08
5.53976e-06
-1.02321e-07
5.58032e-06
-1.07614e-07
5.62363e-06
-1.12962e-07
5.66979e-06
-1.18344e-07
5.71893e-06
-1.23732e-07
5.77117e-06
-1.29093e-07
5.82662e-06
-1.34386e-07
5.88543e-06
-1.39563e-07
5.94771e-06
-1.44568e-07
6.01361e-06
-1.4934e-07
6.08328e-06
-1.53807e-07
6.15686e-06
-1.57889e-07
6.23452e-06
-1.61498e-07
6.31645e-06
-1.64534e-07
6.40283e-06
-1.66891e-07
6.4939e-06
-1.6845e-07
6.58992e-06
-1.69085e-07
6.69117e-06
-1.68663e-07
6.798e-06
-1.67043e-07
6.91082e-06
-1.64087e-07
7.03008e-06
-1.59658e-07
7.15634e-06
-1.53639e-07
7.29022e-06
-1.4595e-07
7.43242e-06
-1.36587e-07
7.58367e-06
-1.25707e-07
7.74458e-06
-1.13807e-07
7.91485e-06
-1.02098e-07
8.08699e-06
-9.15018e-08
8.20666e-06
-8.88793e-08
8.22682e-06
-9.25696e-08
8.19607e-06
-9.12021e-08
8.16854e-06
-8.1278e-08
8.14995e-06
-7.01355e-08
8.13999e-06
-5.87717e-08
8.13745e-06
-4.83334e-08
8.14114e-06
-3.92672e-08
8.14999e-06
-3.16979e-08
8.1631e-06
-2.56089e-08
8.1797e-06
-2.09117e-08
8.19917e-06
-1.74765e-08
8.22098e-06
-1.51451e-08
8.24471e-06
-1.37386e-08
8.26998e-06
-1.30621e-08
8.29644e-06
-1.2909e-08
8.32378e-06
-1.30654e-08
8.35166e-06
-1.33143e-08
8.37974e-06
-1.34394e-08
8.40765e-06
-1.32277e-08
8.43498e-06
-1.24698e-08
8.46126e-06
-1.09552e-08
8.48597e-06
-8.46107e-09
8.50851e-06
-4.72676e-09
8.52817e-06
5.90147e-10
8.54407e-06
7.99261e-09
8.55513e-06
1.82735e-08
8.56e-06
3.26939e-08
8.54782e-06
5.36352e-08
8.54438e-06
8.35109e-08
8.5458e-06
1.32776e-07
8.52372e-06
1.45542e-07
8.48935e-06
1.15039e-07
8.44943e-06
9.71592e-08
8.4121e-06
8.98733e-08
8.37551e-06
9.11126e-08
8.33803e-06
9.83687e-08
8.29742e-06
1.11225e-07
8.25112e-06
1.29212e-07
8.19657e-06
1.51816e-07
8.13151e-06
1.78042e-07
8.05444e-06
2.06191e-07
7.96509e-06
2.33902e-07
7.8646e-06
2.58682e-07
7.75504e-06
2.78784e-07
7.63858e-06
2.93905e-07
7.51652e-06
3.05019e-07
7.38913e-06
3.13168e-07
7.2565e-06
3.17826e-07
7.12017e-06
3.16461e-07
6.98404e-06
3.06276e-07
6.85355e-06
2.86333e-07
6.73419e-06
2.57656e-07
6.63049e-06
2.22022e-07
6.54564e-06
1.81808e-07
6.48089e-06
1.40519e-07
6.43518e-06
1.02278e-07
6.40539e-06
7.04452e-08
6.3874e-06
4.66274e-08
6.37701e-06
3.07042e-08
6.3707e-06
2.14684e-08
6.36581e-06
1.73079e-08
6.36057e-06
1.66535e-08
6.35404e-06
1.80639e-08
6.34598e-06
2.03376e-08
6.33623e-06
2.26952e-08
6.32441e-06
2.56136e-08
6.3101e-06
2.96852e-08
6.29309e-06
3.43523e-08
6.27345e-06
3.90668e-08
6.25135e-06
4.35653e-08
6.22706e-06
4.76991e-08
6.20085e-06
5.14055e-08
6.17299e-06
5.46863e-08
6.14372e-06
5.7594e-08
6.11321e-06
6.02229e-08
6.08159e-06
6.27033e-08
6.04888e-06
6.52017e-08
6.01503e-06
6.79246e-08
5.97983e-06
7.11308e-08
5.94296e-06
7.51559e-08
5.90395e-06
8.03923e-08
5.86212e-06
8.74605e-08
5.81622e-06
9.72407e-08
5.76426e-06
1.11621e-07
5.70288e-06
1.34018e-07
5.62644e-06
1.70526e-07
5.52482e-06
2.35325e-07
5.38053e-06
3.66969e-07
6.84286e-07
5.19126e-06
4.13041e-07
-1.18314e-06
8.06701e-07
-1.28425e-06
1.14186e-06
-1.1508e-06
1.43285e-06
-1.0261e-06
1.69423e-06
-9.32293e-07
1.93534e-06
-8.62038e-07
2.16121e-06
-8.06746e-07
2.37599e-06
-7.62943e-07
2.57965e-06
-7.26343e-07
2.7727e-06
-6.9566e-07
2.9552e-06
-6.70216e-07
3.12489e-06
-6.47918e-07
3.27685e-06
-6.25255e-07
3.4082e-06
-5.99777e-07
3.5169e-06
-5.70014e-07
3.59929e-06
-5.33418e-07
3.65622e-06
-4.90378e-07
3.69223e-06
-4.42925e-07
3.71088e-06
-3.92947e-07
3.71532e-06
-3.42318e-07
3.7081e-06
-2.93043e-07
3.69224e-06
-2.46499e-07
3.67061e-06
-2.04006e-07
3.64443e-06
-1.67556e-07
3.61254e-06
-1.38708e-07
3.57223e-06
-1.16596e-07
3.53699e-06
-9.46909e-08
3.51957e-06
-6.82444e-08
3.51686e-06
-4.19568e-08
3.52581e-06
-2.11434e-08
3.54186e-06
-6.52029e-09
3.562e-06
3.34465e-09
3.58368e-06
9.5015e-09
3.60514e-06
1.27914e-08
3.62525e-06
1.38917e-08
3.64344e-06
1.33662e-08
3.65946e-06
1.16745e-08
3.67333e-06
9.17652e-09
3.68521e-06
6.14253e-09
3.69534e-06
2.76487e-09
3.70399e-06
-8.28673e-10
3.71145e-06
-4.56248e-09
3.71797e-06
-8.4013e-09
3.72381e-06
-1.23421e-08
3.7292e-06
-1.64049e-08
3.73436e-06
-2.06281e-08
3.73948e-06
-2.50641e-08
3.74473e-06
-2.97761e-08
3.75028e-06
-3.4838e-08
3.75627e-06
-4.03354e-08
3.7627e-06
-4.63853e-08
3.76992e-06
-5.29378e-08
3.77837e-06
-5.9766e-08
3.78823e-06
-6.6629e-08
3.79963e-06
-7.33725e-08
3.8127e-06
-8.00545e-08
3.8275e-06
-8.6761e-08
3.84414e-06
-9.35399e-08
3.8627e-06
-1.00429e-07
3.88329e-06
-1.07459e-07
3.90599e-06
-1.14647e-07
3.9309e-06
-1.22006e-07
3.95812e-06
-1.29538e-07
3.98774e-06
-1.3724e-07
4.01988e-06
-1.451e-07
4.05463e-06
-1.53098e-07
4.09211e-06
-1.61209e-07
4.13242e-06
-1.694e-07
4.17566e-06
-1.77629e-07
4.22195e-06
-1.85849e-07
4.27138e-06
-1.94004e-07
4.32407e-06
-2.02029e-07
4.38012e-06
-2.09852e-07
4.43962e-06
-2.17391e-07
4.50268e-06
-2.24557e-07
4.56939e-06
-2.3125e-07
4.63986e-06
-2.37362e-07
4.71419e-06
-2.42776e-07
4.79248e-06
-2.47369e-07
4.87482e-06
-2.5101e-07
4.96134e-06
-2.53565e-07
5.05216e-06
-2.54899e-07
5.14738e-06
-2.54886e-07
5.24716e-06
-2.53413e-07
5.35161e-06
-2.50404e-07
5.46087e-06
-2.4584e-07
5.57497e-06
-2.3981e-07
5.69372e-06
-2.32553e-07
5.81614e-06
-2.24524e-07
5.93948e-06
-2.14841e-07
6.05154e-06
-2.00939e-07
6.14108e-06
-1.82111e-07
6.21475e-06
-1.64873e-07
6.28404e-06
-1.50566e-07
6.35193e-06
-1.3802e-07
6.4195e-06
-1.26342e-07
6.48695e-06
-1.1578e-07
6.55421e-06
-1.06526e-07
6.62115e-06
-9.86464e-08
6.68767e-06
-9.21235e-08
6.75364e-06
-8.68828e-08
6.81898e-06
-8.281e-08
6.88359e-06
-7.97589e-08
6.94741e-06
-7.75556e-08
7.01035e-06
-7.60016e-08
7.07232e-06
-7.48781e-08
7.13321e-06
-7.39509e-08
7.19287e-06
-7.29759e-08
7.25113e-06
-7.1705e-08
7.3078e-06
-6.98903e-08
7.36261e-06
-6.7285e-08
7.4153e-06
-6.36413e-08
7.46554e-06
-5.86995e-08
7.51298e-06
-5.21661e-08
7.55725e-06
-4.36782e-08
7.59799e-06
-3.27461e-08
7.63492e-06
-1.86558e-08
7.66786e-06
-2.46714e-10
7.69662e-06
2.48677e-08
7.72095e-06
5.91905e-08
7.75596e-06
9.77645e-08
7.78806e-06
1.13439e-07
7.79611e-06
1.0699e-07
7.79211e-06
1.01157e-07
7.78182e-06
1.00166e-07
7.76631e-06
1.06619e-07
7.74555e-06
1.1913e-07
7.71903e-06
1.37751e-07
7.68575e-06
1.62493e-07
7.64442e-06
1.93142e-07
7.59361e-06
2.28851e-07
7.53208e-06
2.67721e-07
7.45938e-06
3.06601e-07
7.37654e-06
3.41519e-07
7.28639e-06
3.68936e-07
7.19305e-06
3.87249e-07
7.10059e-06
3.97478e-07
7.01141e-06
4.02349e-07
6.92517e-06
4.04066e-07
6.83934e-06
4.02289e-07
6.75156e-06
3.94057e-07
6.66204e-06
3.75845e-07
6.574e-06
3.45701e-07
6.49212e-06
3.03896e-07
6.42103e-06
2.52897e-07
6.36408e-06
1.97474e-07
6.32243e-06
1.43928e-07
6.29482e-06
9.8056e-08
6.2782e-06
6.32459e-08
6.26888e-06
4.00235e-08
6.26346e-06
2.68811e-08
6.25934e-06
2.14327e-08
6.25475e-06
2.12456e-08
6.24862e-06
2.41911e-08
6.24069e-06
2.82695e-08
6.23099e-06
3.23917e-08
6.21938e-06
3.72276e-08
6.20562e-06
4.34398e-08
6.18956e-06
5.04137e-08
6.17126e-06
5.73626e-08
6.1509e-06
6.39246e-08
6.1287e-06
6.98995e-08
6.1049e-06
7.52074e-08
6.07973e-06
7.9859e-08
6.05339e-06
8.39346e-08
6.02604e-06
8.75704e-08
5.99779e-06
9.09518e-08
5.96868e-06
9.43114e-08
5.93867e-06
9.79341e-08
5.90763e-06
1.02172e-07
5.87531e-06
1.07474e-07
5.84128e-06
1.14418e-07
5.80506e-06
1.23682e-07
5.76582e-06
1.36486e-07
5.72206e-06
1.55375e-07
5.67155e-06
1.84527e-07
5.61094e-06
2.31135e-07
5.53602e-06
3.10249e-07
5.44644e-06
4.56547e-07
7.47056e-07
5.38367e-06
3.87418e-07
-1.57056e-06
7.45456e-07
-1.64229e-06
1.04151e-06
-1.44686e-06
1.2912e-06
-1.27578e-06
1.51178e-06
-1.15287e-06
1.71103e-06
-1.06129e-06
1.89355e-06
-9.89266e-07
2.05988e-06
-9.29271e-07
2.21076e-06
-8.7722e-07
2.34741e-06
-8.32312e-07
2.46847e-06
-7.91273e-07
2.57118e-06
-7.50632e-07
2.65435e-06
-7.08422e-07
2.71816e-06
-6.63588e-07
2.76296e-06
-6.14815e-07
2.79118e-06
-5.61641e-07
2.80595e-06
-5.05148e-07
2.81025e-06
-4.47217e-07
2.80707e-06
-3.89771e-07
2.79936e-06
-3.34609e-07
2.7896e-06
-2.8328e-07
2.78003e-06
-2.36925e-07
2.77231e-06
-1.96292e-07
2.76661e-06
-1.61852e-07
2.76147e-06
-1.33575e-07
2.75517e-06
-1.10291e-07
2.74996e-06
-8.94793e-08
2.7509e-06
-6.91884e-08
2.75907e-06
-5.01222e-08
2.77181e-06
-3.38813e-08
2.78633e-06
-2.10432e-08
2.80105e-06
-1.13762e-08
2.81498e-06
-4.43246e-09
2.82754e-06
2.33691e-10
2.83841e-06
3.02035e-09
2.8475e-06
4.27727e-09
2.85487e-06
4.30782e-09
2.86068e-06
3.36842e-09
2.86515e-06
1.66862e-09
2.86854e-06
-6.27179e-10
2.87111e-06
-3.39671e-09
2.8731e-06
-6.55544e-09
2.87475e-06
-1.00517e-08
2.87627e-06
-1.38611e-08
2.87785e-06
-1.79823e-08
2.87966e-06
-2.24318e-08
2.88183e-06
-2.72404e-08
2.88451e-06
-3.24501e-08
2.88778e-06
-3.81114e-08
2.89173e-06
-4.42812e-08
2.89634e-06
-5.0995e-08
2.90176e-06
-5.83626e-08
2.90823e-06
-6.62343e-08
2.91591e-06
-7.43058e-08
2.92497e-06
-8.24395e-08
2.93554e-06
-9.06186e-08
2.9477e-06
-9.89276e-08
2.96157e-06
-1.0741e-07
2.97724e-06
-1.16099e-07
2.99481e-06
-1.25022e-07
3.01436e-06
-1.34198e-07
3.03599e-06
-1.43636e-07
3.05979e-06
-1.5334e-07
3.08586e-06
-1.63308e-07
3.11428e-06
-1.73527e-07
3.14516e-06
-1.83978e-07
3.17859e-06
-1.94637e-07
3.21466e-06
-2.05468e-07
3.25346e-06
-2.16431e-07
3.29509e-06
-2.27474e-07
3.33962e-06
-2.38541e-07
3.38716e-06
-2.49563e-07
3.43777e-06
-2.60464e-07
3.49154e-06
-2.71159e-07
3.54854e-06
-2.81554e-07
3.60883e-06
-2.91545e-07
3.67249e-06
-3.0102e-07
3.73957e-06
-3.09858e-07
3.81014e-06
-3.17932e-07
3.88423e-06
-3.25107e-07
3.96192e-06
-3.31247e-07
4.04323e-06
-3.36214e-07
4.12823e-06
-3.39879e-07
4.21694e-06
-3.42124e-07
4.30939e-06
-3.42854e-07
4.40556e-06
-3.42013e-07
4.50533e-06
-3.39585e-07
4.60835e-06
-3.35569e-07
4.71379e-06
-3.29961e-07
4.82042e-06
-3.21475e-07
4.92596e-06
-3.06478e-07
5.02828e-06
-2.84432e-07
5.12651e-06
-2.63101e-07
5.22179e-06
-2.45845e-07
5.31511e-06
-2.31338e-07
5.40711e-06
-2.18346e-07
5.49799e-06
-2.06655e-07
5.58771e-06
-1.96247e-07
5.67619e-06
-1.87124e-07
5.76333e-06
-1.7926e-07
5.84904e-06
-1.72594e-07
5.93325e-06
-1.67026e-07
6.01592e-06
-1.62423e-07
6.09698e-06
-1.58616e-07
6.17638e-06
-1.55404e-07
6.25406e-06
-1.52557e-07
6.32994e-06
-1.49823e-07
6.4039e-06
-1.46937e-07
6.47582e-06
-1.43625e-07
6.54554e-06
-1.39614e-07
6.61289e-06
-1.34634e-07
6.67767e-06
-1.2842e-07
6.73967e-06
-1.20701e-07
6.7987e-06
-1.11192e-07
6.85459e-06
-9.95658e-08
6.90726e-06
-8.54171e-08
6.95681e-06
-6.82046e-08
7.00368e-06
-4.71151e-08
7.04936e-06
-2.08162e-08
7.09663e-06
1.19182e-08
7.14903e-06
4.5372e-08
7.1964e-06
6.60651e-08
7.2292e-06
7.41946e-08
7.25108e-06
7.92734e-08
7.26432e-06
8.69247e-08
7.27029e-06
1.00648e-07
7.26917e-06
1.20251e-07
7.26093e-06
1.45992e-07
7.24526e-06
1.78167e-07
7.22159e-06
2.16815e-07
7.18909e-06
2.61346e-07