/*--------------------------------*- C++ -*----------------------------------*\
  =========                 |
  \\      /  F ield         | OpenFOAM: The Open Source CFD Toolbox
   \\    /   O peration     | Website:  https://openfoam.org
    \\  /    A nd           | Version:  9
     \\/     M anipulation  |
\*---------------------------------------------------------------------------*/
FoamFile
{
    format      ascii;
    class       volVectorField;
    location    "0.1";
    object      U;
}
// * * * * * * * * * * * * * * * * * * * * * * * * * * * * * * * * * * * * * //

dimensions      [0 1 -1 0 0 0 0];

internalField   nonuniform List<vector> 
12225
(
(10.0502 -0.335411 0)
(10.3185 -0.31343 0)
(12.7134 -0.0973128 0)
(12.7685 -0.0268859 0)
(12.7774 -0.0111659 0)
(12.8505 -0.0125413 0)
(12.9623 -0.0191027 0)
(13.1261 -0.0279549 0)
(13.3496 -0.0386141 0)
(13.6386 -0.0511247 0)
(14.0002 -0.066075 0)
(14.4464 -0.0849054 0)
(14.9993 -0.11058 0)
(15.7006 -0.149324 0)
(16.6332 -0.215317 0)
(17.9449 -0.343926 0)
(20.1285 -0.631655 0)
(28.6877 -3.04581 0)
(10.5823 -0.208046 0)
(10.9703 -0.394257 0)
(12.7559 -0.180763 0)
(12.9579 -0.0876063 0)
(13.144 -0.0532104 0)
(13.3525 -0.055131 0)
(13.5894 -0.0736474 0)
(13.8792 -0.10044 0)
(14.2344 -0.133182 0)
(14.6636 -0.171975 0)
(15.1771 -0.218763 0)
(15.7906 -0.277856 0)
(16.5292 -0.357643 0)
(17.4364 -0.475063 0)
(18.5901 -0.667547 0)
(20.1277 -1.028 0)
(22.3663 -1.82454 0)
(27.8033 -4.52974 0)
(10.1483 -0.459955 0)
(9.72827 -0.583617 0)
(10.9315 -0.278844 0)
(11.0455 -0.158389 0)
(11.2302 -0.115079 0)
(11.4465 -0.120819 0)
(11.688 -0.152051 0)
(11.9707 -0.197416 0)
(12.3042 -0.253118 0)
(12.6957 -0.319376 0)
(13.1537 -0.399524 0)
(13.6903 -0.500641 0)
(14.3244 -0.636035 0)
(15.086 -0.831562 0)
(16.023 -1.14149 0)
(17.1992 -1.6914 0)
(18.6742 -2.80317 0)
(21.1884 -5.39241 0)
(9.82969 -0.453435 0)
(8.89393 -0.596695 0)
(9.67481 -0.328224 0)
(9.68179 -0.210931 0)
(9.8341 -0.172516 0)
(10.0363 -0.18619 0)
(10.2667 -0.229723 0)
(10.5316 -0.291305 0)
(10.8366 -0.366702 0)
(11.1869 -0.456402 0)
(11.5885 -0.564772 0)
(12.0496 -0.700777 0)
(12.5815 -0.880749 0)
(13.1996 -1.13497 0)
(13.9214 -1.52246 0)
(14.7438 -2.16485 0)
(15.5857 -3.3182 0)
(16.4201 -5.37828 0)
(9.6626 -0.311435 0)
(8.48123 -0.503187 0)
(8.98267 -0.332556 0)
(8.89372 -0.246198 0)
(9.00505 -0.225119 0)
(9.18557 -0.25141 0)
(9.39958 -0.307859 0)
(9.64509 -0.384318 0)
(9.92373 -0.477065 0)
(10.2384 -0.587048 0)
(10.5927 -0.719331 0)
(10.9914 -0.883856 0)
(11.4394 -1.09799 0)
(11.9403 -1.39206 0)
(12.4888 -1.81987 0)
(13.0421 -2.47785 0)
(13.4708 -3.52956 0)
(13.5815 -5.08702 0)
(9.59585 -0.100831 0)
(8.32712 -0.343896 0)
(8.64635 -0.296641 0)
(8.46882 -0.261941 0)
(8.53001 -0.269331 0)
(8.68022 -0.313545 0)
(8.87201 -0.384538 0)
(9.09575 -0.475426 0)
(9.34868 -0.583855 0)
(9.63084 -0.711462 0)
(9.94336 -0.863738 0)
(10.2873 -1.05076 0)
(10.6623 -1.28917 0)
(11.0626 -1.60591 0)
(11.4688 -2.04384 0)
(11.82 -2.66861 0)
(11.9869 -3.56637 0)
(11.8086 -4.68581 0)
(9.5884 0.135693 0)
(8.32155 -0.143226 0)
(8.52879 -0.224514 0)
(8.27421 -0.256027 0)
(8.28151 -0.301711 0)
(8.39544 -0.369629 0)
(8.55992 -0.457803 0)
(8.75886 -0.563615 0)
(8.98516 -0.686753 0)
(9.23574 -0.829768 0)
(9.50889 -0.998366 0)
(9.80236 -1.20205 0)
(10.1111 -1.4554 0)
(10.4231 -1.77987 0)
(10.7116 -2.20545 0)
(10.9114 -2.76999 0)
(10.9175 -3.5051 0)
(10.6418 -4.27312 0)
(9.61426 0.373095 0)
(8.40061 0.0820488 0)
(8.54837 -0.120736 0)
(8.23138 -0.227322 0)
(8.18568 -0.319189 0)
(8.26025 -0.416315 0)
(8.39348 -0.524702 0)
(8.5644 -0.646451 0)
(8.76208 -0.783717 0)
(8.98038 -0.940127 0)
(9.2148 -1.12143 0)
(9.4601 -1.33603 0)
(9.70771 -1.59556 0)
(9.94206 -1.91519 0)
(10.134 -2.31267 0)
(10.2227 -2.80415 0)
(10.136 -3.38694 0)
(9.84563 -3.88634 0)
(9.65712 0.593761 0)
(8.52546 0.31755 0)
(8.6534 0.00880608 0)
(8.29004 -0.176418 0)
(8.1959 -0.319996 0)
(8.23071 -0.450973 0)
(8.33027 -0.582485 0)
(8.47037 -0.72132 0)
(8.6371 -0.872286 0)
(8.82163 -1.04016 0)
(9.01701 -1.2306 0)
(9.2156 -1.4506 0)
(9.4066 -1.70848 0)
(9.57306 -2.01332 0)
(9.68721 -2.37266 0)
(9.69655 -2.78757 0)
(9.56217 -3.23662 0)
(9.28916 -3.53624 0)
(9.69004 0.803066 0)
(8.6249 0.565502 0)
(8.75509 0.16374 0)
(8.36242 -0.104822 0)
(8.22927 -0.306643 0)
(8.22848 -0.477253 0)
(8.29554 -0.635998 0)
(8.40472 -0.794246 0)
(8.54012 -0.959581 0)
(8.69096 -1.13801 0)
(8.84846 -1.33509 0)
(9.00341 -1.5563 0)
(9.14405 -1.80682 0)
(9.25391 -2.09043 0)
(9.30882 -2.40708 0)
(9.26595 -2.74855 0)
(9.11555 -3.08486 0)
(8.8717 -3.23776 0)
(9.64088 0.986568 0)
(8.50716 0.813879 0)
(8.61519 0.336004 0)
(8.21131 -0.00644722 0)
(8.05694 -0.261728 0)
(8.03286 -0.469822 0)
(8.07576 -0.654431 0)
(8.15983 -0.830666 0)
(8.26848 -1.00852 0)
(8.39008 -1.19505 0)
(8.51504 -1.39566 0)
(8.63371 -1.61443 0)
(8.7347 -1.85388 0)
(8.80363 -2.11384 0)
(8.82135 -2.38936 0)
(8.75474 -2.66747 0)
(8.61652 -2.91554 0)
(8.42734 -2.98012 0)
(9.65622 1.27697 0)
(8.59317 1.08555 0)
(8.69098 0.490977 0)
(8.28375 0.0629279 0)
(8.10775 -0.252232 0)
(8.05201 -0.500621 0)
(8.05926 -0.712112 0)
(8.10481 -0.905977 0)
(8.17225 -1.09463 0)
(8.24973 -1.28618 0)
(8.32754 -1.48592 0)
(8.39629 -1.6969 0)
(8.44583 -1.91974 0)
(8.46461 -2.15186 0)
(8.43895 -2.38599 0)
(8.34527 -2.60859 0)
(8.20528 -2.7926 0)
(8.08202 -2.7859 0)
(9.72548 1.43308 0)
(8.78416 1.33763 0)
(8.9956 0.674503 0)
(8.62736 0.183809 0)
(8.45581 -0.177896 0)
(8.39085 -0.458615 0)
(8.37901 -0.692029 0)
(8.39967 -0.900287 0)
(8.4384 -1.0976 0)
(8.48429 -1.29292 0)
(8.52811 -1.49154 0)
(8.56118 -1.69589 0)
(8.57459 -1.90555 0)
(8.5592 -2.11683 0)
(8.50479 -2.32212 0)
(8.39094 -2.50997 0)
(8.26578 -2.65897 0)
(8.09794 -2.5898 0)
(9.90255 1.54004 0)
(9.30579 1.55638 0)
(9.77485 0.839657 0)
(9.48421 0.286293 0)
(9.32318 -0.121605 0)
(9.24366 -0.436153 0)
(9.20144 -0.693296 0)
(9.18298 -0.917163 0)
(9.17734 -1.12326 0)
(9.17534 -1.3211 0)
(9.16879 -1.51594 0)
(9.14998 -1.70968 0)
(9.11147 -1.90123 0)
(9.04633 -2.08652 0)
(8.94687 -2.25849 0)
(8.79281 -2.40828 0)
(8.6656 -2.51721 0)
(8.42496 -2.39823 0)
(10.0073 1.42835 0)
(9.66001 1.60473 0)
(10.4041 0.937054 0)
(10.2183 0.374429 0)
(10.0876 -0.0503137 0)
(10.0042 -0.381845 0)
(9.93596 -0.652297 0)
(9.87823 -0.884337 0)
(9.82525 -1.09288 0)
(9.771 -1.28707 0)
(9.70954 -1.47171 0)
(9.63512 -1.64827 0)
(9.54248 -1.81543 0)
(9.42722 -1.96946 0)
(9.28379 -2.10462 0)
(9.09094 -2.21474 0)
(8.96572 -2.28161 0)
(8.65299 -2.12182 0)
(10.032 1.17777 0)
(9.79416 1.48496 0)
(10.7748 0.935443 0)
(10.6999 0.419012 0)
(10.6179 0.0125277 0)
(10.5471 -0.31319 0)
(10.4661 -0.581864 0)
(10.379 -0.811536 0)
(10.2863 -1.01456 0)
(10.186 -1.19859 0)
(10.0755 -1.36758 0)
(9.95199 -1.5226 0)
(9.81281 -1.66247 0)
(9.65624 -1.78427 0)
(9.47846 -1.88393 0)
(9.25708 -1.95757 0)
(9.14457 -1.98715 0)
(8.77282 -1.80329 0)
(10.0111 0.855107 0)
(9.78081 1.2044 0)
(10.9321 0.811161 0)
(10.949 0.395283 0)
(10.9193 0.0497236 0)
(10.8716 -0.237959 0)
(10.7904 -0.480885 0)
(10.687 -0.690253 0)
(10.5669 -0.874147 0)
(10.4329 -1.03765 0)
(10.2858 -1.18331 0)
(10.1259 -1.31171 0)
(9.95339 -1.42194 0)
(9.76884 -1.51207 0)
(9.56971 -1.57971 0)
(9.33247 -1.62292 0)
(9.24156 -1.62512 0)
(8.82627 -1.44175 0)
(9.97903 0.502236 0)
(9.70677 0.783534 0)
(10.9632 0.56133 0)
(11.0365 0.291034 0)
(11.0453 0.0488151 0)
(11.0189 -0.164919 0)
(10.9434 -0.353155 0)
(10.8338 -0.519521 0)
(10.6995 -0.666881 0)
(10.5464 -0.796974 0)
(10.3785 -0.91047 0)
(10.1984 -1.00719 0)
(10.0085 -1.08635 0)
(9.81111 -1.14691 0)
(9.60429 -1.1878 0)
(9.36329 -1.20848 0)
(9.29866 -1.19539 0)
(8.8536 -1.03875 0)
(9.95523 0.142647 0)
(9.62439 0.241308 0)
(10.9057 0.196749 0)
(10.9846 0.113999 0)
(11.0008 0.0140359 0)
(10.9806 -0.092467 0)
(10.9081 -0.198961 0)
(10.7987 -0.301096 0)
(10.6628 -0.39588 0)
(10.5075 -0.481126 0)
(10.3378 -0.555144 0)
(10.1577 -0.616592 0)
(9.97022 -0.66443 0)
(9.77823 -0.697939 0)
(9.57976 -0.71675 0)
(9.34902 -0.720759 0)
(9.31114 -0.700437 0)
(8.86034 -0.596377 0)
(9.9203 -0.128146 0)
(9.52985 -0.170827 0)
(10.6241 -0.074874 0)
(10.6185 -0.00893651 0)
(10.5831 0.0059305 0)
(10.5351 -0.0125037 0)
(10.4525 -0.0506895 0)
(10.3454 -0.0984423 0)
(10.2205 -0.148504 0)
(10.0825 -0.195858 0)
(9.93495 -0.237139 0)
(9.78038 -0.270185 0)
(9.62115 -0.29374 0)
(9.45942 -0.307256 0)
(9.29317 -0.310761 0)
(9.09785 -0.304333 0)
(9.0732 -0.283013 0)
(8.71388 -0.232179 0)
(9.90464 -0.286313 0)
(9.46048 -0.346474 0)
(10.4033 -0.160464 0)
(10.3221 -0.0193241 0)
(10.2439 0.0511907 0)
(10.1768 0.0741936 0)
(10.0929 0.0679499 0)
(9.99677 0.046146 0)
(9.89115 0.0181839 0)
(9.77793 -0.00965793 0)
(9.65852 -0.0333778 0)
(9.53415 -0.050599 0)
(9.406 -0.0601471 0)
(9.2753 -0.0617589 0)
(9.13971 -0.0558861 0)
(8.97542 -0.0430466 0)
(8.9608 -0.0211742 0)
(8.66377 0.000865946 0)
(9.893 -0.377871 0)
(9.39488 -0.401834 0)
(10.2036 -0.154859 0)
(10.0586 0.0227939 0)
(9.95224 0.115738 0)
(9.88069 0.154536 0)
(9.80754 0.16102 0)
(9.7316 0.150495 0)
(9.65243 0.133468 0)
(9.56931 0.11678 0)
(9.48194 0.104299 0)
(9.39033 0.0982368 0)
(9.29472 0.0995531 0)
(9.19547 0.108265 0)
(9.08991 0.123632 0)
(8.95479 0.144878 0)
(8.94724 0.17256 0)
(8.70365 0.178788 0)
(9.87231 -0.4174 0)
(9.29918 -0.365379 0)
(9.97663 -0.0869293 0)
(9.78315 0.0911522 0)
(9.66938 0.17867 0)
(9.6124 0.21417 0)
(9.56544 0.221086 0)
(9.52127 0.213928 0)
(9.47441 0.20191 0)
(9.42502 0.19149 0)
(9.37183 0.186513 0)
(9.3143 0.188832 0)
(9.25215 0.199141 0)
(9.1852 0.217362 0)
(9.11059 0.242748 0)
(9.00571 0.274618 0)
(9.00455 0.313352 0)
(8.81518 0.315817 0)
(9.83839 -0.395168 0)
(9.16315 -0.252787 0)
(9.73007 0.0165045 0)
(9.51447 0.1614 0)
(9.41782 0.222986 0)
(9.39167 0.243326 0)
(9.38241 0.244248 0)
(9.37697 0.237607 0)
(9.36793 0.229568 0)
(9.35285 0.223956 0)
(9.33293 0.224399 0)
(9.30844 0.23305 0)
(9.27902 0.250575 0)
(9.24437 0.276976 0)
(9.2017 0.311899 0)
(9.1292 0.355325 0)
(9.13622 0.408879 0)
(9.00288 0.418637 0)
(9.79771 -0.307209 0)
(9.00822 -0.0891981 0)
(9.51322 0.12555 0)
(9.30937 0.213646 0)
(9.25135 0.239719 0)
(9.26684 0.241406 0)
(9.29767 0.235259 0)
(9.32952 0.228698 0)
(9.35663 0.224864 0)
(9.37525 0.224855 0)
(9.38542 0.230107 0)
(9.39065 0.243193 0)
(9.39172 0.265689 0)
(9.38845 0.297925 0)
(9.37854 0.340304 0)
(9.3414 0.394229 0)
(9.36097 0.46444 0)
(9.28591 0.491344 0)
(9.77066 -0.16678 0)
(8.88544 0.0901048 0)
(9.40639 0.212925 0)
(9.24827 0.236172 0)
(9.24218 0.228242 0)
(9.30019 0.214727 0)
(9.36567 0.203996 0)
(9.42863 0.198549 0)
(9.48384 0.198632 0)
(9.53063 0.203922 0)
(9.56872 0.213927 0)
(9.59969 0.229946 0)
(9.62858 0.254592 0)
(9.65566 0.289326 0)
(9.67962 0.335407 0)
(9.68202 0.396305 0)
(9.72192 0.482412 0)
(9.70792 0.535823 0)
(9.79573 -0.0180602 0)
(8.8785 0.241884 0)
(9.52239 0.258607 0)
(9.4377 0.226194 0)
(9.48578 0.194271 0)
(9.57986 0.172882 0)
(9.67054 0.1613 0)
(9.7535 0.157844 0)
(9.829 0.161209 0)
(9.89681 0.169938 0)
(9.95836 0.183216 0)
(10.0145 0.200814 0)
(10.0692 0.224823 0)
(10.1266 0.258093 0)
(10.1863 0.302853 0)
(10.2339 0.364525 0)
(10.3064 0.461821 0)
(10.357 0.551574 0)
(9.92531 0.0640598 0)
(9.09951 0.313624 0)
(10.0056 0.248832 0)
(10.0177 0.185723 0)
(10.117 0.144946 0)
(10.24 0.124041 0)
(10.3479 0.115271 0)
(10.4441 0.114271 0)
(10.5329 0.119328 0)
(10.6182 0.129299 0)
(10.7003 0.143018 0)
(10.7824 0.160059 0)
(10.865 0.181153 0)
(10.9546 0.209098 0)
(11.0535 0.247061 0)
(11.1533 0.300977 0)
(11.2767 0.398143 0)
(11.3962 0.534195 0)
(10.1728 -0.0506437 0)
(9.63166 0.227957 0)
(10.9645 0.173576 0)
(11.0724 0.11657 0)
(11.2052 0.0849043 0)
(11.3474 0.0720468 0)
(11.4676 0.0684153 0)
(11.5768 0.0697971 0)
(11.6821 0.0750101 0)
(11.7884 0.0836342 0)
(11.8994 0.0949471 0)
(12.0152 0.108485 0)
(12.1406 0.124263 0)
(12.2767 0.143958 0)
(12.4298 0.170336 0)
(12.5989 0.207383 0)
(12.8064 0.28385 0)
(12.9966 0.453255 0)
(9.89134 0.114219 0)
(9.1892 0.228337 0)
(11.1482 0.107791 0)
(11.284 0.0505074 0)
(11.3921 0.0334519 0)
(11.5353 0.028962 0)
(11.6681 0.0281076 0)
(11.7983 0.0288993 0)
(11.933 0.0311904 0)
(12.0776 0.0349275 0)
(12.2367 0.0400085 0)
(12.4124 0.0460077 0)
(12.6074 0.0528507 0)
(12.8219 0.061224 0)
(13.0636 0.0721162 0)
(13.3353 0.0866415 0)
(13.6621 0.12037 0)
(13.8751 0.231192 0)
(0.180296 -0.335673 2.43042e-17)
(0.520956 -0.469802 -1.87782e-17)
(0.914594 -0.454544 0)
(1.28073 -0.423987 0)
(1.62173 -0.398041 0)
(1.93481 -0.371006 1.26933e-17)
(2.2277 -0.344018 0)
(2.50217 -0.317043 0)
(2.75921 -0.291319 0)
(3.00315 -0.269439 0)
(3.23346 -0.250675 -1.12885e-17)
(3.45689 -0.237444 0)
(3.67591 -0.230296 0)
(3.89322 -0.231503 0)
(4.11498 -0.241531 0)
(4.34181 -0.255867 -1.11245e-17)
(4.56777 -0.270783 0)
(4.80301 -0.281554 0)
(5.02516 -0.283035 0)
(5.24819 -0.278527 0)
(5.47478 -0.26778 0)
(5.68035 -0.2508 0)
(5.86926 -0.238048 0)
(6.06252 -0.231015 -1.01125e-17)
(6.22061 -0.232823 9.65734e-18)
(6.41576 -0.251114 -9.17621e-18)
(6.68071 -0.210235 -9.33204e-18)
(6.72502 -0.117761 0)
(6.79414 -0.0679264 0)
(6.88928 -0.0283363 9.68404e-18)
(6.90507 0.0171221 9.04254e-18)
(6.89779 0.0428439 0)
(6.87335 0.057146 0)
(6.84008 0.0637877 7.57739e-18)
(6.80257 0.0652545 0)
(6.76407 0.0632665 0)
(6.72678 0.0590488 -6.63142e-18)
(6.69219 0.053475 0)
(6.66122 0.0471568 -6.19078e-18)
(6.63442 0.0405095 -1.20229e-17)
(6.61207 0.0337999 0)
(6.59427 0.0271848 0)
(6.58103 0.0207419 0)
(6.57229 0.014494 0)
(6.568 0.00842766 0)
(6.5681 0.00250802 -1.06178e-17)
(6.57259 -0.00331152 -1.0471e-17)
(6.58149 -0.00908247 -1.03427e-17)
(6.59489 -0.014858 0)
(6.61296 -0.0206917 1.01355e-17)
(6.63558 -0.0267668 0)
(6.66531 -0.0326739 -9.98809e-18)
(6.69833 -0.0372914 -9.93502e-18)
(6.7364 -0.0407183 0)
(6.77763 -0.0435957 0)
(6.82191 -0.0461544 0)
(6.86901 -0.0485405 -9.78744e-18)
(6.91884 -0.0508296 0)
(6.97133 -0.0530689 0)
(7.02646 -0.055287 0)
(7.0842 -0.057499 0)
(7.14455 -0.0597095 0)
(7.20751 -0.0619173 0)
(7.27306 -0.0641151 0)
(7.34117 -0.066292 0)
(7.41179 -0.0684321 9.96788e-18)
(7.48483 -0.0705165 0)
(7.56019 -0.0725212 0)
(7.63773 -0.0744184 -1.02056e-17)
(7.71724 -0.0761749 -1.0309e-17)
(7.79849 -0.0777525 0)
(7.88117 -0.0791061 1.05568e-17)
(7.96492 -0.0801846 -1.07032e-17)
(8.04929 -0.0809279 0)
(8.13373 -0.0812683 1.10469e-17)
(8.21762 -0.0811271 0)
(8.3002 -0.0804158 0)
(8.38061 -0.0790323 -1.17113e-17)
(8.45782 -0.0768634 0)
(8.53066 -0.0737803 1.2275e-17)
(8.59778 -0.0696426 0)
(8.65768 -0.0642961 -1.29577e-17)
(8.70862 -0.0575788 -1.33511e-17)
(8.7487 -0.0493266 -1.37842e-17)
(8.77583 -0.0393895 -2.85221e-17)
(8.78781 -0.0276613 2.95731e-17)
(8.78241 -0.0141516 0)
(8.75743 0.000816677 0)
(8.7069 0.0159976 0)
(8.64975 0.0258592 3.49996e-17)
(8.49522 -0.00578709 3.67048e-17)
(8.52708 -0.0676481 -3.63486e-17)
(8.74044 -0.093064 0)
(8.84841 -0.0784339 3.20453e-17)
(8.95288 -0.0610429 3.02805e-17)
(9.03307 -0.045257 2.87232e-17)
(9.09584 -0.0320052 0)
(9.14345 -0.0212754 0)
(9.17828 -0.0128199 0)
(9.20259 -0.00633397 2.40268e-17)
(9.21847 -0.00151272 0)
(9.22778 0.00192828 0)
(9.23214 0.00424658 -2.16047e-17)
(9.23292 0.00567151 0)
(9.23127 0.00640578 0)
(9.2281 0.00662735 -1.97799e-17)
(9.22411 0.00649191 0)
(9.21979 0.00613488 0)
(9.21543 0.00567353 1.8367e-17)
(9.21116 0.00520893 1.79659e-17)
(9.20691 0.00482841 0)
(9.20248 0.00460885 -1.72495e-17)
(9.19751 0.00462182 0)
(9.19146 0.00494302 1.66326e-17)
(9.18365 0.00567096 0)
(9.17309 0.00695629 1.61026e-17)
(9.15841 0.00908085 1.58664e-17)
(9.1373 0.0130051 0)
(9.10156 0.0127403 0)
(9.05835 0.0664146 0)
(9.01066 0.116853 0)
(8.82264 0.0912997 0)
(8.7584 0.0535149 0)
(8.70741 0.0302848 0)
(8.66381 0.0214348 1.3322e-17)
(8.62412 0.0183585 -1.33248e-17)
(8.57979 0.018657 0)
(8.52716 0.0216605 0)
(8.46371 0.0266579 0)
(8.38698 0.0331269 0)
(8.29522 0.0404901 -2.81878e-17)
(8.18744 0.0480005 0)
(8.06371 0.0547045 2.9605e-17)
(7.92532 0.0595895 -3.04852e-17)
(7.77445 0.0619438 0)
(7.61363 0.0617325 0)
(7.44511 0.059687 0)
(7.27085 0.05695 3.56823e-17)
(7.09356 0.0544073 3.7442e-17)
(6.91815 0.0521044 0)
(6.75121 0.0493222 4.0574e-17)
(6.59832 0.0453353 4.1524e-17)
(6.46254 0.0399265 -4.1993e-17)
(6.3455 0.033385 0)
(6.24862 0.0263081 0)
(6.17256 0.0193915 -4.1647e-17)
(6.11642 0.0132236 0)
(6.07767 0.00815727 0)
(6.05275 0.00429562 0)
(6.03793 0.0015564 0)
(6.02981 -0.00024272 3.92216e-17)
(6.02562 -0.00131294 3.86255e-17)
(6.02331 -0.00184999 0)
(6.02136 -0.00202358 3.73719e-17)
(6.01902 -0.00200764 0)
(6.01619 -0.00202693 0)
(6.01254 -0.0019476 3.53872e-17)
(6.00776 -0.00160738 0)
(6.00116 -0.00114409 3.40634e-17)
(5.9925 -0.000634798 0)
(5.98175 -0.000121669 0)
(5.96897 0.000369719 3.21321e-17)
(5.95431 0.000826234 0)
(5.9379 0.00124453 3.08893e-17)
(5.91989 0.00162913 0)
(5.90041 0.00199102 0)
(5.87952 0.00234698 0)
(5.85719 0.00271936 -2.8509e-17)
(5.83331 0.00313694 0)
(5.80765 0.00363683 2.73666e-17)
(5.77979 0.00427164 0)
(5.74901 0.00512092 0)
(5.71444 0.00623554 0)
(5.67456 0.00772653 0)
(5.62731 0.00990937 0)
(5.5688 0.0133213 0)
(5.49218 0.0189286 0)
(5.38292 0.0292429 -4.62569e-17)
(5.20724 0.052215 0)
(4.81809 0.12231 0)
(0.198544 -1.05399 -6.86272e-17)
(0.556664 -1.27034 5.17447e-17)
(0.929859 -1.17743 0)
(1.25486 -1.065 -2.39302e-17)
(1.54192 -0.970568 0)
(1.80108 -0.892627 -1.00711e-17)
(2.04281 -0.82782 1.92164e-17)
(2.2687 -0.771028 1.86403e-17)
(2.48857 -0.725425 0)
(2.70321 -0.68788 1.78499e-17)
(2.91423 -0.661137 8.8561e-18)
(3.12381 -0.645449 0)
(3.33004 -0.639684 0)
(3.53926 -0.641388 0)
(3.73036 -0.641425 0)
(3.91485 -0.638964 9.75305e-18)
(4.09069 -0.630957 0)
(4.23673 -0.608082 -1.86694e-17)
(4.36116 -0.573043 0)
(4.46044 -0.531568 0)
(4.53186 -0.48574 1.64081e-17)
(4.58485 -0.436337 0)
(4.61351 -0.387652 -1.49831e-17)
(4.6231 -0.34803 7.12123e-18)
(4.61981 -0.331453 -6.76013e-18)
(4.57121 -0.329942 6.44204e-18)
(4.54007 -0.279807 6.18481e-18)
(4.47082 -0.177659 0)
(4.46807 -0.0882034 0)
(4.43756 -0.0221747 -5.53402e-18)
(4.43421 0.0240254 5.31982e-18)
(4.43271 0.0506864 0)
(4.43713 0.0639999 0)
(4.4458 0.0682309 -4.80758e-18)
(4.45782 0.0664544 0)
(4.4724 0.0608646 0)
(4.48889 0.0530172 4.45241e-18)
(4.50673 0.0439926 0)
(4.52549 0.0345167 -4.2736e-18)
(4.54479 0.0250541 8.38404e-18)
(4.56435 0.0158791 0)
(4.58396 0.0071298 0)
(4.60349 -0.00114996 1.59823e-17)
(4.62283 -0.00898104 1.57606e-17)
(4.64192 -0.0164264 1.55564e-17)
(4.66075 -0.0235767 -7.68562e-18)
(4.67933 -0.0305415 7.59581e-18)
(4.69767 -0.0374464 2.25502e-17)
(4.71582 -0.0444339 -1.48868e-17)
(4.73371 -0.0516694 -7.37475e-18)
(4.75162 -0.0595298 0)
(4.7704 -0.0674626 7.25704e-18)
(4.78706 -0.0744569 -7.2047e-18)
(4.80647 -0.0805689 0)
(4.82712 -0.0860164 0)
(4.8496 -0.0910004 0)
(4.8739 -0.0957266 7.0011e-18)
(4.90015 -0.100285 0)
(4.92844 -0.104743 -1.38524e-17)
(4.95883 -0.109145 0)
(4.9914 -0.113517 -1.3735e-17)
(5.02625 -0.11787 0)
(5.06345 -0.122204 1.36502e-17)
(5.10311 -0.126511 0)
(5.14533 -0.130774 -1.35984e-17)
(5.19022 -0.134969 6.79166e-18)
(5.2379 -0.139067 0)
(5.28847 -0.143034 1.35857e-17)
(5.34206 -0.146827 6.80131e-18)
(5.39879 -0.150399 6.81342e-18)
(5.45879 -0.153698 0)
(5.5222 -0.156663 6.84926e-18)
(5.58916 -0.159228 6.88123e-18)
(5.65981 -0.161319 0)
(5.73431 -0.162854 -6.9553e-18)
(5.81284 -0.163746 1.39983e-17)
(5.89558 -0.163898 0)
(5.98274 -0.163207 7.11617e-18)
(6.07455 -0.161561 0)
(6.17129 -0.158845 -2.17763e-17)
(6.27327 -0.154939 0)
(6.38084 -0.149719 2.23145e-17)
(6.49444 -0.143068 7.54524e-18)
(6.61454 -0.134877 -7.65037e-18)
(6.74172 -0.125059 -1.55512e-17)
(6.87658 -0.113566 1.58255e-17)
(7.01977 -0.100429 0)
(7.17175 -0.0858557 0)
(7.32961 -0.0704579 0)
(7.49485 -0.0554846 -5.16703e-17)
(7.65005 -0.0608625 -1.76759e-17)
(7.72192 -0.0834553 1.76718e-17)
(7.71325 -0.0897855 0)
(7.69567 -0.0762153 1.67833e-17)
(7.68452 -0.0628771 -1.6383e-17)
(7.67843 -0.050618 -1.60268e-17)
(7.67975 -0.0399886 0)
(7.68754 -0.0310894 0)
(7.70079 -0.0238663 0)
(7.7186 -0.0182026 -1.48716e-17)
(7.74018 -0.0139507 0)
(7.7649 -0.010945 2.88449e-17)
(7.79221 -0.00900878 4.2654e-17)
(7.82168 -0.00795883 -2.80584e-17)
(7.85292 -0.00760883 0)
(7.88561 -0.00777279 -1.36859e-17)
(7.91943 -0.00826794 0)
(7.95409 -0.00891763 -2.6751e-17)
(7.98925 -0.00955368 1.32352e-17)
(8.02459 -0.0100178 1.31002e-17)
(8.05973 -0.010161 0)
(8.09425 -0.00984025 3.85477e-17)
(8.12769 -0.00890947 -2.54704e-17)
(8.1595 -0.00720095 -1.26266e-17)
(8.18906 -0.00448961 0)
(8.21557 -0.000424707 -1.24333e-17)
(8.238 0.00559981 -3.70455e-17)
(8.25417 0.0145475 0)
(8.26218 0.0261215 -2.44038e-17)
(8.24395 0.0424366 -2.42707e-17)
(8.30132 0.074471 -2.33176e-17)
(8.26007 0.0770562 0)
(8.26073 0.0485539 0)
(8.22736 0.0338427 0)
(8.19936 0.030512 1.08961e-17)
(8.17379 0.0323171 1.08e-17)
(8.14859 0.0373769 0)
(8.12144 0.045117 2.14467e-17)
(8.09003 0.0551118 2.14881e-17)
(8.05182 0.0670358 0)
(8.0043 0.0803215 2.18312e-17)
(7.94543 0.094119 4.42839e-17)
(7.87422 0.107374 -2.25687e-17)
(7.79106 0.119092 -2.31057e-17)
(7.69769 0.12869 0)
(7.59633 0.136175 0)
(7.48861 0.141947 0)
(7.37483 0.146201 -2.72106e-17)
(7.25451 0.148255 2.88414e-17)
(7.12843 0.146553 6.1235e-17)
(7.00034 0.139749 -3.23004e-17)
(6.87618 0.127788 3.36414e-17)
(6.76158 0.111631 3.45344e-17)
(6.66081 0.0925009 0)
(6.57715 0.0718326 0)
(6.51281 0.0514447 -3.48452e-17)
(6.46803 0.0331794 0)
(6.44079 0.0183174 0)
(6.4274 0.00730709 6.73724e-17)
(6.42367 -0.000100132 0)
(6.42572 -0.00453797 3.26877e-17)
(6.43048 -0.00675041 -3.21584e-17)
(6.43573 -0.00742621 0)
(6.44003 -0.00717952 3.10667e-17)
(6.44284 -0.00650476 0)
(6.44478 -0.00584399 0)
(6.44423 -0.00495235 -2.93609e-17)
(6.44169 -0.00349489 5.76029e-17)
(6.43648 -0.00176855 -2.82543e-17)
(6.42856 -7.40074e-06 0)
(6.41806 0.00167481 0)
(6.40522 0.00321479 2.66874e-17)
(6.39029 0.00458587 0)
(6.37356 0.00578877 2.56955e-17)
(6.35528 0.00684512 0)
(6.33566 0.00779323 0)
(6.31485 0.00868561 0)
(6.29291 0.00958837 2.38042e-17)
(6.26983 0.0105827 0)
(6.24546 0.0117696 -2.28937e-17)
(6.21954 0.0132794 0)
(6.19153 0.0152739 0)
(6.16097 0.0179786 4.31305e-17)
(6.12691 0.0217027 -4.22535e-17)
(6.08736 0.0271751 0)
(6.03969 0.0357248 0)
(5.97907 0.0497089 0)
(5.89659 0.0747867 1.1672e-16)
(5.77732 0.127471 0)
(5.60552 0.266139 -7.47961e-17)
(0.212572 -1.86367 -2.05619e-20)
(0.548045 -2.07132 -6.17751e-17)
(0.877038 -1.8596 0)
(1.15356 -1.6534 4.20791e-17)
(1.3972 -1.49404 0)
(1.61957 -1.37312 0)
(1.82672 -1.27771 9.54854e-21)
(2.02085 -1.20246 -1.64977e-17)
(2.20891 -1.14317 -1.61576e-17)
(2.38727 -1.09518 -1.60187e-17)
(2.55329 -1.05646 0)
(2.71314 -1.02643 0)
(2.86026 -0.999995 1.56932e-17)
(2.98541 -0.967408 3.07888e-17)
(3.09522 -0.927694 -3.01314e-17)
(3.18203 -0.876691 0)
(3.24361 -0.812298 -2.84341e-17)
(3.28575 -0.738437 1.36772e-17)
(3.31112 -0.659556 0)
(3.3223 -0.578508 -2.51233e-17)
(3.32228 -0.498887 -1.20098e-17)
(3.31326 -0.422816 2.3005e-17)
(3.29796 -0.352621 1.10083e-17)
(3.27813 -0.292401 0)
(3.25489 -0.24517 -2.02471e-17)
(3.22421 -0.210915 -1.9463e-17)
(3.18709 -0.173128 0)
(3.16351 -0.124241 -1.8101e-17)
(3.15353 -0.0755478 0)
(3.15978 -0.0364031 -1.68599e-17)
(3.17479 -0.0103774 -8.14315e-18)
(3.19423 0.00626435 0)
(3.21562 0.0153016 0)
(3.23726 0.0186703 0)
(3.25799 0.0180108 0)
(3.27716 0.0146541 0)
(3.29444 0.00961686 0)
(3.30976 0.00363574 -1.34284e-17)
(3.32323 -0.00278243 1.97071e-17)
(3.33504 -0.00931071 0)
(3.34542 -0.0157565 0)
(3.35462 -0.0220253 0)
(3.36289 -0.0280911 5.39509e-21)
(3.37046 -0.0339751 -1.20126e-17)
(3.37756 -0.0397296 -2.36827e-17)
(3.38438 -0.0454274 2.33625e-17)
(3.39111 -0.0511549 1.15354e-17)
(3.39792 -0.0570092 -1.13959e-17)
(3.40495 -0.0630988 -2.98693e-21)
(3.41217 -0.0695497 -1.11589e-17)
(3.42027 -0.0765945 0)
(3.42879 -0.0839959 -1.09583e-17)
(3.43771 -0.0914387 -1.72539e-21)
(3.44851 -0.0987982 0)
(3.46037 -0.105847 0)
(3.47393 -0.112656 1.05717e-17)
(3.489 -0.119337 0)
(3.50574 -0.125942 0)
(3.52425 -0.13252 -1.03346e-17)
(3.54462 -0.139107 -2.05315e-17)
(3.56693 -0.145728 1.02024e-17)
(3.59127 -0.152395 0)
(3.61774 -0.159111 -1.00902e-17)
(3.64644 -0.16587 0)
(3.67745 -0.172657 -9.99455e-18)
(3.7109 -0.17945 -9.95905e-18)
(3.74687 -0.186219 1.98467e-17)
(3.78548 -0.192929 9.89236e-18)
(3.82682 -0.199536 0)
(3.87101 -0.205993 -1.97088e-17)
(3.91815 -0.212242 0)
(3.96835 -0.218222 -2.95161e-17)
(4.0217 -0.223862 -1.96767e-17)
(4.07832 -0.229088 -1.96918e-17)
(4.13831 -0.233814 1.97209e-17)
(4.20176 -0.237951 -2.96525e-17)
(4.26878 -0.241402 0)
(4.33948 -0.244061 0)
(4.41395 -0.245819 1.99918e-17)
(4.4923 -0.246561 3.01605e-17)
(4.57465 -0.246165 0)
(4.66111 -0.244511 -1.01986e-17)
(4.75179 -0.241479 0)
(4.84683 -0.236956 3.11268e-17)
(4.94634 -0.230846 1.74621e-20)
(5.05042 -0.223083 -1.76199e-20)
(5.15907 -0.213667 -2.14743e-17)
(5.27201 -0.202715 0)
(5.38716 -0.1906 2.21055e-17)
(5.50463 -0.176721 1.12362e-20)
(5.62507 -0.161387 0)
(5.72524 -0.14453 0)
(5.80229 -0.128613 0)
(5.87766 -0.114041 -2.23115e-17)
(5.95001 -0.101712 0)
(6.01982 -0.0909352 0)
(6.0893 -0.0818029 0)
(6.15871 -0.0742788 0)
(6.22803 -0.068255 0)
(6.29717 -0.063595 -2.11119e-17)
(6.36605 -0.0601491 0)
(6.43457 -0.057759 -2.08499e-17)
(6.50264 -0.0562576 -2.07412e-17)
(6.57019 -0.0554694 2.06416e-17)
(6.63715 -0.0552113 0)
(6.70344 -0.0552944 2.04627e-17)
(6.76895 -0.055527 0)
(6.83357 -0.0557181 2.03024e-17)
(6.89714 -0.0556807 -2.02272e-17)
(6.95949 -0.0552343 -6.0473e-17)
(7.02039 -0.0542045 0)
(7.07958 -0.0524197 -6.00645e-17)
(7.13678 -0.0497003 -1.9963e-17)
(7.19165 -0.0458391 0)
(7.24382 -0.0405654 -3.97004e-17)
(7.29288 -0.0334858 -3.96116e-17)
(7.33839 -0.023986 5.93097e-17)
(7.37969 -0.0110607 0)
(7.4163 0.00743622 1.97376e-17)
(7.4531 0.0316296 1.97421e-17)
(7.48939 0.0644386 5.89434e-17)
(7.5356 0.07621 0)
(7.56605 0.0615735 0)
(7.57409 0.0506997 0)
(7.57472 0.0452679 1.91025e-17)
(7.57172 0.0461359 0)
(7.56364 0.0516595 0)
(7.55038 0.06147 -1.89397e-17)
(7.53115 0.075266 -1.89811e-17)
(7.50479 0.0926488 0)
(7.46989 0.112843 0)
(7.42498 0.134488 -3.8919e-17)
(7.369 0.155624 0)
(7.30203 0.174072 4.0338e-17)
(7.22587 0.188183 4.13752e-17)
(7.1441 0.197539 0)
(7.06101 0.203033 0)
(6.98001 0.206064 -4.67206e-17)
(6.90211 0.207231 -1.6105e-20)
(6.82567 0.205545 -1.56552e-20)
(6.74813 0.198995 0)
(6.66867 0.185989 -1.16465e-16)
(6.58937 0.166171 0)
(6.51417 0.140313 0)
(6.44745 0.110236 0)
(6.39311 0.0788747 6.08586e-17)
(6.35361 0.0496824 0)
(6.32901 0.0254532 -1.18079e-16)
(6.3171 0.00751049 -5.79984e-17)
(6.3144 -0.00426844 0)
(6.31728 -0.0108971 -5.58925e-17)
(6.3227 -0.0136964 0)
(6.32847 -0.0139248 0)
(6.33322 -0.0126732 -1.58467e-16)
(6.33605 -0.0109089 1.03672e-16)
(6.33782 -0.00913917 0)
(6.33713 -0.00700998 9.95808e-17)
(6.33477 -0.00418798 -4.88161e-17)
(6.33013 -0.00101756 0)
(6.32318 0.00211431 0)
(6.31408 0.00503252 0)
(6.30303 0.00764448 -1.35745e-16)
(6.29024 0.0099171 0)
(6.27596 0.0118605 -4.36114e-17)
(6.26042 0.0135171 0)
(6.24378 0.0149539 0)
(6.22619 0.0162584 0)
(6.20772 0.0175373 0)
(6.18836 0.0189179 0)
(6.16802 0.0205541 0)
(6.14648 0.0226387 -7.65403e-17)
(6.1234 0.0254042 0)
(6.09819 0.0291476 -3.68137e-17)
(6.07049 0.0343748 1.08243e-16)
(6.03863 0.0421458 0)
(6.00092 0.054248 0)
(5.95434 0.0737843 -6.78724e-17)
(5.89431 0.107542 -6.65288e-17)
(5.81808 0.172384 6.52057e-17)
(5.74802 0.312768 6.39585e-17)
(0.209296 -2.64062 1.16696e-16)
(0.517407 -2.77243 8.44908e-17)
(0.810978 -2.44654 4.42022e-17)
(1.04959 -2.15858 1.8888e-17)
(1.25574 -1.94588 0)
(1.44189 -1.78618 -3.2049e-17)
(1.60978 -1.65851 1.52845e-17)
(1.76582 -1.55445 0)
(1.90675 -1.46277 1.41099e-17)
(2.03499 -1.38403 0)
(2.1514 -1.31517 -2.69113e-17)
(2.25244 -1.24952 0)
(2.33575 -1.18209 -1.28458e-17)
(2.40236 -1.11142 -2.5021e-17)
(2.45116 -1.03382 2.42907e-17)
(2.48376 -0.946991 0)
(2.50301 -0.853086 2.26796e-17)
(2.51183 -0.755783 0)
(2.51276 -0.658531 0)
(2.50842 -0.564546 2.01591e-17)
(2.50125 -0.476625 0)
(2.49342 -0.396936 1.70482e-20)
(2.48677 -0.327118 0)
(2.48209 -0.268442 0)
(2.47869 -0.221165 -1.47053e-20)
(2.47467 -0.183142 1.59515e-17)
(2.46991 -0.14932 1.53832e-17)
(2.46814 -0.116137 1.4816e-17)
(2.47299 -0.085625 0)
(2.48402 -0.0605866 2.75848e-17)
(2.4981 -0.0414458 0)
(2.5131 -0.0275084 1.2896e-17)
(2.5277 -0.0180006 0)
(2.54121 -0.0121583 0)
(2.55326 -0.00926397 -1.17893e-17)
(2.5637 -0.0086679 0)
(2.57254 -0.00980944 1.11997e-17)
(2.57989 -0.0122266 -8.58348e-21)
(2.58594 -0.0155558 -2.1411e-17)
(2.59093 -0.0195242 2.09926e-17)
(2.59507 -0.0239387 0)
(2.5986 -0.0286728 0)
(2.60174 -0.033655 9.96727e-18)
(2.6047 -0.0388567 0)
(2.60764 -0.0442826 9.671e-18)
(2.61074 -0.0499629 -9.54621e-18)
(2.61414 -0.0559465 -9.4317e-18)
(2.61795 -0.0622955 0)
(2.6223 -0.0690821 9.23024e-18)
(2.62709 -0.0763841 9.14194e-18)
(2.63288 -0.0842736 -1.8128e-17)
(2.63926 -0.0927962 8.98757e-18)
(2.64615 -0.101697 8.91008e-18)
(2.65437 -0.110596 0)
(2.66366 -0.119323 0)
(2.67448 -0.127899 -8.67032e-18)
(2.68666 -0.136428 0)
(2.70039 -0.144969 0)
(2.71575 -0.153565 1.69397e-17)
(2.73285 -0.162249 1.68216e-17)
(2.75176 -0.171041 0)
(2.77258 -0.179951 0)
(2.7954 -0.18898 0)
(2.82031 -0.198122 0)
(2.84739 -0.207359 1.63416e-17)
(2.87674 -0.216667 -1.62645e-17)
(2.90846 -0.226015 -1.62014e-17)
(2.94263 -0.235363 -3.22814e-17)
(2.97935 -0.244665 0)
(3.01871 -0.253866 5.69795e-21)
(3.06079 -0.262905 0)
(3.10569 -0.271712 1.5992e-17)
(3.1535 -0.280212 7.74154e-21)
(3.20428 -0.288321 1.59712e-17)
(3.25812 -0.295948 -1.5976e-17)
(3.31509 -0.302994 9.89946e-21)
(3.37527 -0.309355 0)
(3.43872 -0.31492 -1.60457e-17)
(3.5055 -0.319573 -1.61083e-17)
(3.57568 -0.323192 -3.23326e-17)
(3.6493 -0.325656 0)
(3.72643 -0.326842 1.63299e-17)
(3.8071 -0.326632 0)
(3.89135 -0.324919 -3.31389e-17)
(3.9792 -0.321617 1.67186e-17)
(4.07063 -0.316675 -1.68786e-17)
(4.1655 -0.310094 1.70579e-17)
(4.26342 -0.301944 3.44902e-17)
(4.36309 -0.292415 -1.74812e-17)
(4.4651 -0.280615 1.77305e-17)
(4.57134 -0.263859 0)
(4.67286 -0.241749 -3.60501e-17)
(4.76855 -0.221018 0)
(4.86566 -0.204076 -3.54116e-17)
(4.9606 -0.189823 3.51522e-17)
(5.05308 -0.177279 3.49294e-17)
(5.14438 -0.16633 -3.47405e-17)
(5.23468 -0.156915 -3.45821e-17)
(5.32401 -0.148954 0)
(5.41231 -0.14234 -1.71816e-17)
(5.49951 -0.136949 0)
(5.58554 -0.132637 0)
(5.67034 -0.129244 -3.41266e-17)
(5.75387 -0.126594 0)