/*--------------------------------*- C++ -*----------------------------------*\
  =========                 |
  \\      /  F ield         | OpenFOAM: The Open Source CFD Toolbox
   \\    /   O peration     | Website:  https://openfoam.org
    \\  /    A nd           | Version:  9
     \\/     M anipulation  |
\*---------------------------------------------------------------------------*/
FoamFile
{
    format      ascii;
    class       volScalarField;
    location    "0.18";
    object      epsilon;
}
// * * * * * * * * * * * * * * * * * * * * * * * * * * * * * * * * * * * * * //

dimensions      [0 2 -3 0 0 0 0];

internalField   nonuniform List<scalar> 
12225
(
210.129
126.813
82.4266
59.1469
46.6439
39.4432
34.8196
31.4996
28.9124
26.7962
25.0179
23.5026
22.2132
21.1617
20.3703
19.979
20.8841
26.013
62.6331
55.4347
42.4137
33.4663
27.7346
23.9357
21.292
19.3487
17.8453
16.6348
15.6314
14.781
14.0432
13.4085
12.8542
12.3511
12.1765
12.5768
31.8331
33.4172
28.9021
24.3684
20.8297
18.1902
16.2137
14.6977
13.499
12.5238
11.7105
11.0169
10.4163
9.88583
9.41028
8.98806
8.85014
10.1613
21.9932
23.9567
22.2094
19.6747
17.325
15.3742
13.8056
12.5455
11.5207
10.6736
9.96125
9.3522
8.82595
8.36262
7.95262
7.60857
7.47795
8.11207
17.8879
19.1321
18.3154
16.7607
15.1206
13.6349
12.3634
11.2959
10.401
9.64617
9.00359
8.45054
7.97111
7.55068
7.18351
6.88468
6.74784
7.02525
15.9134
16.4288
15.8769
14.8037
13.5906
12.4234
11.3746
10.4601
9.67139
8.99235
8.40581
7.89632
7.4521
7.0631
6.72642
6.45589
6.31148
6.419
14.8917
14.8343
14.2933
13.4437
12.4817
11.5287
10.6447
9.85143
9.15102
8.5366
7.99829
7.52596
7.11134
6.74784
6.43434
6.18202
6.02868
6.04185
14.3445
13.8707
13.2493
12.487
11.6655
10.8519
10.086
9.38651
8.75816
8.19863
7.70232
7.26271
6.87405
6.5323
6.23709
5.99661
5.83403
5.78718
14.0476
13.285
12.5605
11.8154
11.0651
10.3374
9.65305
9.02336
8.45201
7.93795
7.47764
7.06665
6.70091
6.37789
6.09737
5.86477
5.69384
5.60642
13.8864
12.9313
12.1106
11.3491
10.6282
9.94947
9.31834
8.73844
8.21044
7.73272
7.30233
6.9158
6.56999
6.26291
5.99436
5.76736
5.58975
5.47449
13.7994
12.7211
11.8223
11.0319
10.3164
9.662
9.06315
8.5168
8.0202
7.5703
7.16377
6.79734
6.46818
6.17434
5.91532
5.69247
5.50996
5.37578
13.7567
12.6086
11.6568
10.839
10.1175
9.47145
8.88871
8.36168
7.8848
7.45347
7.06364
6.71177
6.39493
6.11105
5.85912
5.63949
5.45467
5.31046
13.7322
12.5398
11.5496
10.7075
9.97626
9.33135
8.7568
8.24176
7.77837
7.36057
6.98349
6.64313
6.3363
6.06065
5.81474
5.59824
5.41273
5.26182
13.7177
12.4961
11.4771
10.6136
9.87053
9.22233
8.6508
8.14286
7.68882
7.28128
6.91449
6.58385
6.28576
6.01751
5.7772
5.5639
5.37851
5.22338
13.7099
12.4713
11.4334
10.5538
9.79978
9.14617
8.57405
8.06914
7.62055
7.2199
6.86063
6.53758
6.24668
5.98479
5.74955
5.53955
5.35506
5.19744
13.7064
12.459
11.4105
10.5207
9.75857
9.09985
8.52565
8.02128
7.57528
7.17869
6.82439
6.50677
6.22133
5.96454
5.73366
5.52689
5.34401
5.18556
13.705
12.4537
11.4001
10.5051
9.73844
9.07646
8.50054
7.99602
7.55126
7.15702
6.80592
6.49202
6.21056
5.95769
5.73039
5.52658
5.34565
5.18747
13.7047
12.4518
11.3964
10.4995
9.73125
9.06823
8.49198
7.98788
7.54429
7.15186
6.80309
6.49189
6.21332
5.96335
5.73879
5.53735
5.35816
5.20053
13.7048
12.4521
11.3968
10.5006
9.7333
9.07148
8.49662
7.99405
7.55209
7.16137
6.81437
6.50495
6.2281
5.97975
5.75661
5.55626
5.37771
5.21986
13.7061
12.4564
11.4055
10.5142
9.75183
9.09422
8.52256
8.02211
7.58125
7.19077
6.84328
6.53284
6.2546
6.00458
5.77955
5.57708
5.3961
5.23564
13.7106
12.4712
11.4329
10.5539
9.80153
9.15064
8.58239
8.08245
7.63981
7.24591
6.89393
6.57834
6.29462
6.03909
5.80864
5.60088
5.41468
5.24934
13.7254
12.5167
11.5107
10.6579
9.92232
9.27892
8.71049
8.20483
7.75293
7.3478
6.98377
6.65609
6.36073
6.0942
5.85361
5.63656
5.44179
5.26887
13.7701
12.6406
11.703
10.8937
10.1764
9.53179
8.94933
8.42241
7.94608
7.51603
7.12815
6.77853
6.46349
6.17959
5.92375
5.6934
5.48697
5.30416
13.8946
12.9445
12.1265
11.3677
10.6498
9.97436
9.34635
8.76937
8.24425
7.7696
7.34254
6.95934
6.61595
6.3084
6.03292
5.78621
5.56599
5.37197
14.2205
13.6295
12.9768
12.2359
11.4556
10.6844
9.95444
9.28283
8.67563
8.13241
7.64932
7.22106
6.84179
6.50583
6.20796
5.94362
5.70917
5.5039
15.0406
15.0901
14.584
13.7324
12.7493
11.7649
10.8458
10.0188
9.2891
8.65148
8.09647
7.61375
7.19353
6.82689
6.50613
6.22477
5.97749
5.76225
17.1005
18.1585
17.5549
16.2517
14.7867
13.3939
12.1594
11.0997
10.2019
9.44395
8.80304
8.25893
7.79502
7.39742
7.05492
6.75856
6.50099
6.27843
22.6774
24.8917
23.2008
20.6136
18.1266
16.0015
14.2658
12.8695
11.7461
10.836
10.0915
9.47636
8.9636
8.53294
8.1685
7.85838
7.59311
7.3658
41.2658
41.6397
35.2398
29.2488
24.5858
21.0872
18.4863
16.5404
15.0599
13.9106
13.0011
12.2693
11.6737
11.1862
10.7834
10.4486
10.1701
9.93822
136.094
97.2212
71.7168
54.8806
43.7119
36.2466
31.1707
27.6158
25.0333
23.0873
21.5732
20.3643
19.3897
18.6033
17.9547
17.4128
16.9619
16.6063
4.99781
2.68448
3.59424
4.32111
4.91543
5.40792
5.8197
6.16634
6.45994
6.71042
6.92642
7.11622
7.28917
7.45897
7.63167
7.80875
7.98935
8.1703
8.34756
8.52009
8.6907
8.84492
8.92641
8.87085
8.94119
9.12379
8.61684
9.16291
8.71765
8.76638
9.1616
9.24006
9.11329
9.29712
40.1803
41.222
41.6086
40.7374
44.1713
48.2456
52.5489
56.9924
61.5154
66.0684
70.6095
75.1037
79.5222
83.8425
88.0474
92.1243
96.065
99.8647
103.521
107.035
110.406
113.64
116.738
119.704
122.544
125.26
127.857
130.339
132.709
134.971
137.128
139.182
141.139
143.002
144.775
146.465
148.079
149.622
151.099
152.507
153.857
155.168
156.448
157.651
158.778
159.825
160.79
161.668
162.455
163.145
163.731
164.207
164.564
164.793
164.886
164.832
164.622
164.243
163.685
162.933
161.975
160.794
159.375
157.702
155.76
153.531
151.002
148.159
144.989
141.485
137.642
133.459
128.944
124.109
118.975
113.572
107.939
102.123
96.1808
90.1745
84.1742
78.2579
72.5138
67.0441
62.01
57.8062
55.0006
53.3821
12.3093
55.3235
12.5659
12.2812
12.1195
12.3938
12.2618
12.1769
12.1425
12.2543
12.2815
13.2349
12.9372
12.5983
12.2666
12.2218
12.5619
13.7113
13.5615
13.1926
12.8167
13.0779
13.4032
13.2306
13.2715
13.3399
13.8517
14.3722
14.1582
13.9141
14.0433
14.1098
13.7714
14.953
14.6833
13.7196
65.138
15.1753
13.9135
15.7404
66.8979
15.6503
15.2836
14.807
14.2664
13.7293
13.1782
12.6195
12.0626
11.5163
10.9882
10.4839
10.0063
9.55539
9.12793
8.71694
8.30502
7.88159
7.12618
5.1455
4.98278
5.01574
5.07928
5.14699
5.21595
5.28783
5.36552
5.45235
5.55215
5.66946
5.81032
5.98255
6.19518
6.45175
6.75499
7.1099
7.52379
8.00731
8.57557
9.24985
10.062
11.0402
12.1721
13.5736
15.528
16.7499
18.8342
20.2632
21.0935
22.648
25.0112
27.4396
30.9199
32.4395
33.6423
34.8488
36.2514
37.6213
38.9439
40.2174
41.4418
42.6184
43.7498
44.8382
45.8853
46.8918
47.8584
48.7852
49.6723
50.52
51.3283
52.0977
52.8284
53.5212
54.1766
54.7954
55.3785
55.9269
56.4416
56.924
57.3752
57.7969
58.191
58.5596
58.9057
59.2329
59.5461
59.8517
60.159
60.4808
60.8281
61.165
61.4903
61.8042
62.1047
62.3872
62.6507
62.8943
63.1168
63.3168
63.4926
63.6422
63.7632
63.853
63.9085
63.9267
63.904
63.8367
63.7207
63.5517
63.3249
63.0351
62.6768
62.2441
61.7308
61.1304
60.4364
59.6422
58.7416
57.7286
56.5979
55.3451
53.9674
52.4633
50.8335
49.0815
47.2132
45.2381
43.1692
41.0231
38.8201
36.5843
34.3433
32.1285
29.976
27.9286
26.0391
24.371
22.9238
21.2604
17.4454
19.9596
15.9193
15.0294
14.101
12.6186
12.2237
11.9669
11.7359
11.6737
11.9399
10.3061
10.2339
10.6543
11.4938
12.5414
11.6511
9.79161
9.59888
9.66348
9.74223
9.66525
9.59758
9.66946
9.79326
9.88054
9.80455
9.72109
9.74477
9.84036
10.0035
10.2756
10.6026
10.3296
11.0435
13.6338
17.2409
10.7069
10.8367
10.956
17.509
10.078
9.35619
8.99971
8.63527
8.27588
7.91061
7.54289
7.17854
6.82337
6.48229
6.15885
5.85503
5.57129
5.30657
5.06
4.83218
4.66033
10.8
7.21753
6.44107
6.1222
5.94924
5.84679
5.78925
5.7665
5.77516
5.81555
5.89057
6.0054
6.16754
6.38666
6.67157
7.03027
7.47359
8.01434
8.66753
9.4497
10.3784
11.4647
12.7228
14.1615
15.7295
17.3778
19.0902
20.6769
22.2496
23.6335
24.8473
26.0794
27.345
28.537
29.6528
30.4911
31.2379
31.9696
32.7064
33.4317
34.1495
34.8613
35.564
36.2535
36.9259
37.5774
38.2047
38.8051
39.3765
39.9171
40.4262
40.9034
41.3489
41.7631
42.1469
42.5012
42.8274
43.1268
43.4006
43.6506
43.8782
44.0851
44.273
44.4438
44.5996
44.7424
44.8746
44.9989
45.1181
45.2353
45.3539
45.4772
45.6083
45.7341
45.8543
45.9684
46.0752
46.1735
46.2626
46.3422
46.4118
46.4708
46.5182
46.5531
46.5742
46.5799
46.5686
46.5382
46.4866
46.4113
46.3096
46.1784
46.0146
45.8143
45.5736
45.2883
44.9537
44.5649
44.1171
43.6051
43.0238
42.3683
41.634
40.8169
39.9136
38.922
37.8412
36.6719
35.4169
34.081
32.6718
31.1994
29.6768
28.1198
26.5471
24.9801
23.4428
21.9621
20.5641
19.2677
18.0594
16.8342
15.4652
14.9953
13.8301
13.0705
12.353
11.6096
11.1737
10.8278
10.5112
10.2384
9.98348
9.37367
9.26472
9.38207
9.58099
9.66942
9.21904
8.57061
8.45362
8.49389
8.52412
8.45636
8.40302
8.4399
8.48552
8.48806
8.40428
8.34118
8.38552
8.47444
8.56783
8.68782
8.78375
8.67779
8.9801
9.66536
9.99887
8.74358
8.75261
8.65374
9.72523
8.06619
7.62416
7.33236
7.0358
6.73719
6.43123
6.12115
5.81227
5.51006
5.21932
4.94375
4.68573
4.44626
4.22527
4.02293
3.84226
3.70274
14.9425
9.20782
7.8395
7.25028
6.92553
6.73052
6.61511
6.55795
6.5504
6.59067
6.68138
6.8286
7.04116
7.33077
7.70339
8.17275
8.75369
9.46004
10.3052
11.3018
12.4628
13.7646
15.1828
16.6876
18.2273
19.746
21.1945
22.5192
23.7104
24.7521
25.6629
26.486
27.2413
27.9306
28.5668
29.1546
29.7329
30.3205
30.918
31.5202
32.1248
32.7284
33.3259
33.9114
34.4797
35.0262
35.5474
36.0404
36.5035
36.9356
37.3363
37.7059
38.0448
38.3542
38.6351
38.889
39.1173
39.3216
39.5036
39.6647
39.8068
39.9314
40.0402
40.135
40.2174
40.2891
40.352
40.4078
40.4581
40.5046
40.5487
40.5918
40.6348
40.6763
40.7132
40.7454
40.7723
40.7936
40.809
40.8185
40.8219
40.8191
40.8097
40.7932
40.7688
40.7359
40.6931
40.6395
40.5733
40.4929
40.3964
40.2814
40.1455
39.9856
39.7985
39.5808
39.3285
39.0374
38.7031
38.321
37.8863
37.3942
36.84
36.2194
35.5285
34.7641
33.9238
33.0066
32.0129
30.9451
29.8072
28.606
27.3504
26.0521
24.7251
23.386
22.0535
20.7475
19.4866
18.2842
17.1412
16.0393
14.9837
14.153
13.2943
12.5584
11.8927
11.2912
10.8209
10.4211
10.0602
9.72985
9.41528
9.0667
8.89884
8.8304
8.77904
8.66267
8.39971
8.1144
8.01734
7.99991
7.97916
7.91958
7.87171
7.86624
7.86289
7.83708
7.78109
7.7477
7.77523
7.82549
7.86945
7.91184
7.93139
7.89205
7.99462
8.16843
8.1518
7.82836
7.77961
7.65356
7.76602
7.22811
6.93323
6.677
6.41039
6.13508
5.84953
5.55749
5.26445
4.97618
4.69794
4.43403
4.18745
3.95989
3.752
3.56447
3.40032
3.27002
19.3549
11.2231
9.2841
8.44534
7.98924
7.72332
7.5723
7.50271
7.5
7.55969
7.68356
7.87777
8.15162
8.50892
8.96148
9.52355
10.2108
11.0322
11.9878
13.0774
14.2895
15.5983
16.968
18.3553
19.7112
20.9892
22.1535
23.1835
24.0785
24.8514
25.527
26.1341
26.6973
27.2363
27.7679
28.3044
28.8564
29.4266
30.0105
30.602
31.1951
31.7844
32.364
32.9285
33.4731
33.9938
34.4875
34.9519
35.3856
35.788
36.1588
36.4985
36.8078
37.0877
37.3396
37.5647
37.7647
37.941
38.0952
38.2288
38.3436
38.4409
38.5223
38.5893
38.6434
38.686
38.7185
38.7421
38.7582
38.7677
38.7718
38.7714
38.7672
38.76
38.7488
38.7332
38.7129
38.6877
38.6577
38.6231
38.584
38.5407
38.4929
38.4408
38.3841
38.3223
38.255
38.1816
38.101
38.0122
37.9137
37.8041
37.6813
37.5431
37.3869
37.2096
37.008
36.7785
36.5168
36.2188
35.8798
35.495
35.0595
34.5686
34.0176
33.4022
32.7188
31.9646
31.138
30.2387
29.2683
28.2303
27.1304
25.9768
24.7803
23.554
22.3131
21.0742
19.8537
18.6655
17.5192
16.42
15.3826
14.4511
13.585
12.8059
12.1061
11.4883
10.9633
10.5072
10.1006
9.73366
9.39912
9.09457
8.87446
8.70826
8.55589
8.38469
8.18141
7.99478
7.88862
7.82588
7.76795
7.70029
7.64339
7.60838
7.5774
7.53979
7.4968
7.47246
7.48093
7.50159
7.51708
7.52668
7.52331
7.50253
7.52816
7.56112
7.51412
7.39388
7.3278
7.21054
7.13096
6.86527
6.63483
6.39777
6.14533
5.87851
5.59822
5.30886
5.01628
4.72676
4.44623
4.1797
3.93094
3.70238
3.49535
3.31087
3.15157
3.02314
24.0641
13.3376
10.8332
9.74122
9.15269
8.81878
8.63753
8.56194
8.57022
8.65397
8.81271
9.05135
9.37413
9.78354
10.2911
10.9075
11.6406
12.4935
13.4623
14.5352
15.6907
16.8985
18.1214
19.3197
20.4553
21.4978
22.4287
23.2447
23.9559
24.5825
25.1493
25.6811
26.1986
26.7179
27.2501
27.8011
28.3726
28.9622
29.5642
30.1722
30.7798
31.381
31.9703
32.5426
33.0937
33.6201
34.1191
34.5886
35.0275
35.435
35.8111
36.156
36.4703
36.7551
37.0114
37.2405
37.4437
37.6224
37.7781
37.9123
38.0262
38.1213
38.1991
38.2607
38.3074
38.3406
38.3612
38.3706
38.3696
38.3592
38.3405
38.3142
38.2813
38.2426
38.1989
38.1502
38.0962
38.0371
37.9729
37.9041
37.8311
37.7541
37.6737
37.59
37.5032
37.4134
37.3206
37.2245
37.1249
37.0212
36.9127
36.7983
36.6767
36.5464
36.4053
36.2512
36.0812
35.8922
35.6807
35.4426
35.1737
34.8692
34.524
34.133
33.691
33.1926
32.633
32.0078
31.3132
30.5468
29.7073
28.7953
27.8134
26.7666
25.6623
24.5107
23.3242
22.1174
20.9055
19.7036
18.5258
17.3857
16.299
15.2869
14.3496
13.4936
12.7195
12.0332
11.4343
10.9092
10.4445
10.0305
9.66101
9.33574
9.06621
8.8374
8.62941
8.4281
8.23223
8.06107
7.93397
7.83571
7.74811
7.66448
7.59241
7.53542
7.48562
7.43853
7.39629
7.3691
7.36117
7.36135
7.3596
7.35403
7.34243
7.32538
7.32207
7.31398
7.27108
7.20154
7.13222
7.027
6.91106
6.72339
6.52074
6.29426
6.04845
5.78341
5.50162
5.20799
4.90882
4.61094
4.321
4.04483
3.78705
3.55086
3.33822
3.15048
2.98981
2.85922
28.6384
15.5025
12.4732
11.1248
10.3989
9.99483
9.78303
9.70206
9.72111
9.82607
10.0123
10.2813
10.6283
11.0611
11.5872
12.2124
12.9392
13.7649
14.6804
15.6694
16.7085
17.7685
18.8181
19.8267
20.7689
21.6278
22.3974
23.0828
23.6978
24.2618
24.7956
25.3181
25.8442
26.3842
26.9441
27.5254
28.1268
28.7443
29.3721
30.0042
30.6346
31.2575
31.8678
32.4609
33.0329
33.5806
34.1014
34.5935
35.0554
35.4865
35.8864
36.2553
36.5935
36.9019
37.1811
37.4324
37.6568
37.8555
38.0297
38.1807
38.3097
38.4179
38.5065
38.5767
38.6296
38.6662
38.6875
38.6946
38.6883
38.6697
38.6397
38.599
38.5488
38.4898
38.423
38.3497
38.2698
38.1836
38.0912
37.9931
37.8899
37.7822
37.6706
37.5557
37.4381
37.3182
37.1965
37.0732
36.9485
36.8226
36.6951
36.5658
36.434
36.2988
36.159
36.0128
35.8582
35.6928
35.5135
35.3169
35.099
34.8553
34.581
34.2706
33.9183
33.5183
33.0646
32.5512
31.9725
31.3239
30.6013
29.8026
28.927
27.9763
26.9545
25.8688
24.7288
23.5469
22.3374
21.1161
19.8994
18.7045
17.5493
16.4521
15.424
14.4734
13.6054
12.8264
12.138
11.5307
10.9936
10.5178
10.0963
9.72555
9.40454
9.12354
8.87115
8.63962
8.42817
8.24355
8.09074
7.962
7.84812
7.74532
7.65578
7.58002
7.51428
7.45646
7.40791
7.3723
7.35008
7.3349
7.3208
7.30584
7.28901
7.27059
7.25528
7.23396
7.19471
7.13917
7.07068
6.97432
6.85508
6.69368
6.50332
6.28398
6.04085
5.77461
5.48837
5.18738
4.87832
4.56859
4.26557
3.97595
3.70522
3.4574
3.23511
3.04
2.87391
2.73829
33.0187
17.713
14.1731
12.5588
11.6878
11.2106
10.9665
10.877
10.9018
11.0204
11.224
11.5006
11.8533
12.2859
12.8016
13.402
14.0855
14.846
15.6725
16.5483
17.4523
18.3607
19.2497
20.0983
20.8912
21.6206
22.287
22.8983
23.4678
24.0112
24.5442
25.0803
25.6293
26.1976
26.7876
27.399
28.0292
28.6739
29.3278
29.9853
30.6408
31.2891
31.9255
32.5456
33.1457
33.7227
34.2742
34.7981
35.293
35.758
36.1925
36.5963
36.9696
37.3128
37.6265
37.9115
38.1685
38.3985
38.6026
38.7816
38.9367
39.0688
39.179
39.2682
39.3373
39.3873
39.4191
39.4336
39.4317
39.4141
39.3818
39.3358
39.2768
39.2059
39.1241
39.0324
38.9323
38.8239
38.7074
38.5834
38.4526
38.3157
38.1736
38.0272
37.8772
37.7247
37.5702
37.4147
37.2589
37.1032
36.9482
36.7941
36.6411
36.4888
36.3368
36.1842
36.0298
35.8717
35.7078
35.5354
35.3509
35.1505
34.9295
34.6827
34.4042
34.0876
33.7261
33.3125
32.8398
32.3009
31.6897
31.0008
30.2304
29.3767
28.4404
27.425
26.3372
25.1869
23.9869
22.7526
21.5016
20.253
19.027
17.8433
16.7184
15.6647
14.692
13.8079
13.0183
12.3168
11.6949
11.144
10.6565
10.2267
9.84933
9.51636
9.21959
8.95303
8.71443
8.50476
8.32386
8.1667
8.02782
7.90444
7.79637
7.70286
7.62164
7.55141
7.4926
7.44592
7.41039
7.38209
7.35722
7.33401
7.31147
7.28906
7.26679
7.2394
7.20072
7.14892
7.08167
6.9908
6.87431
6.72357
6.53969
6.32559
6.08374
5.81538
5.52386
5.21456
4.89444
4.57139
4.25352
3.94838
3.66236
3.40031
3.16555
2.9601
2.78561
2.64264
37.0071
19.871
15.8607
13.9849
12.9667
12.4106
12.1294
12.027
12.0521
12.1773
12.3824
12.6594
13.0071
13.4255
13.9142
14.4716
15.0939
15.7739
16.5007
17.2602
18.0353
18.8085
19.5631
20.2859
20.9683
21.6078
22.2076
22.7756
23.3229
23.8614
24.4024
24.9551
25.5261
26.1186
26.7338
27.3701
28.0245
28.693
29.3705
30.0521
30.7326
31.4071
32.0712
32.7207
33.3522
33.9625
34.549
35.1098
35.6431
36.1477
36.6229
37.0682
37.4834
37.8687
38.2241
38.5503
38.8477
39.1171
39.359
39.5743
39.7638
39.9281
40.0682
40.1847
40.2785
40.3503
40.4009
40.4311
40.4415
40.4331
40.4066
40.3628
40.3027
40.2271
40.137
40.0334
39.9182
39.7922
39.6555
39.5087
39.3526
39.1881
39.0163
38.8381
38.6547
38.4672
38.2769
38.0849
37.8924
37.7004
37.51
37.3221
37.1375
36.9566
36.7798
36.6071
36.4379
36.2714
36.1064
35.9408
35.7722
35.5973
35.4121
35.2118
34.9907
34.7424
34.4596
34.1344
33.7583
33.3228
32.8193
32.2397
31.577
30.826
29.9834
29.0492
28.0264
26.9218
25.7459
24.5129
23.2402
21.9481
20.6584
19.3932
18.173
17.0149
15.9329
14.9375
14.0386
13.2337
12.5165
11.8794
11.315
10.8162
10.3763
9.98756
9.64269
9.33577
9.06303
8.82246
8.61163
8.42639
8.26264
8.11777
7.99041
7.87912
7.78206
7.69799
7.6266
7.56734
7.51867
7.47785
7.44223
7.41015
7.38046
7.35205
7.32347
7.29103
7.25045
7.19861
7.13175
7.04381
6.93024
6.78478
6.60601
6.39611
6.15545
5.88532
5.58899
5.27177
4.94077
4.60428
4.27105
3.94946
3.6468
3.36884
3.11959
2.90152
2.71627
2.56398
40.4723
21.8536
17.4597
15.336
14.1724
13.5357
13.2141
13.0952
13.1174
13.243
13.4486
13.7245
14.0647
14.4651
14.9225
15.4332
15.9924
16.593
17.2259
17.8801
18.5434
19.2036
19.85
20.4749
21.0743
21.6484
22.2011
22.7395
23.2722
23.8081
24.3553
24.92
25.5062
26.116
26.7491
27.4038
28.077
28.7647
29.4624
30.1654
30.8691
31.5687
32.2601
32.9394
33.6029
34.2477
34.871
35.4707
36.0449
36.5921
37.1113
37.6017
38.0628
38.4943
38.8963
39.2687
39.6119
39.9261
40.2118
40.4694
40.6996
40.9027
41.0793
41.2301
41.3556
41.4563
41.533
41.5861
41.6163
41.6243
41.6107
41.5764
41.522
41.4485
41.3567
41.2476
41.1224
40.9833
40.8305
40.6645
40.486
40.2961
40.0959
39.8866
39.6695
39.4461
39.2177
38.986
38.7525
38.5189
38.2865
38.057
37.8318
37.6121
37.3989
37.1932
36.9952
36.8052
36.6229
36.4472
36.2768
36.1092
35.9414
35.7695
35.5882
35.3916
35.1725
34.9225
34.6324
34.2924
33.8919
33.4205
32.8682
32.2261
31.4873
30.6473
29.7053
28.6642
27.5315
26.3189
25.0428
23.7235
22.3838
21.0483
19.7406
18.4824
17.292
16.1844
15.1713
14.2568
13.4367
12.7049
12.0547
11.4787
10.9697
10.52
10.1222
9.76976
9.45776
9.18231
8.93966
8.72566
8.53647
8.36924
8.22183
8.0923
7.97873
7.87968
7.79421
7.72133
7.6592
7.60564
7.55859
7.51647
7.47801
7.44181
7.40603
7.3677
7.32327
7.26924
7.2015
7.11461
7.00309
6.86107
6.68739
6.48138
6.24254
5.97176
5.67192
5.34811
5.00738
4.6583
4.31013
3.97202
3.65218
3.35726
3.09208
2.85963
2.66172
2.4984
43.474
23.6383
18.9192
16.5615
15.2551
14.5372
14.1738
14.0386
14.0584
14.1864
14.3981
14.6777
15.0146
15.4015
15.8326
16.3031
16.8075
17.3399
17.8931
18.4593
19.0304
19.599
20.159
20.7064
21.2403
21.7624
22.2768
22.7896
23.3076
23.8373
24.3845
24.9537
25.5473
26.1663
26.8099
27.4763
28.1623
28.8642
29.5778
30.2988
31.0227
31.7451
32.462
33.1695
33.8642
34.5428
35.2027
35.8414
36.4569
37.0475
37.6119
38.1489
38.6578
39.138
39.589
40.0108
40.403
40.7659
41.0995
41.404
41.6796
41.9265
42.1451
42.3358
42.4988
42.6345
42.7434
42.8258
42.8823
42.9133
42.9193
42.901
42.859
42.794
42.7068
42.5982
42.4691
42.322
42.1577
41.9765
41.7792
41.5669
41.3407
41.102
40.8522
40.5928
40.3257
40.0527
39.7756
39.4964
39.2172
38.9401
38.667
38.3998
38.1403
37.8903
37.651
37.4236
37.2087
37.0066
36.8169
36.6385
36.4694
36.3068
36.1466
35.9834
35.8107
35.6204
35.403
35.1478
34.8431
34.4762
34.0346
33.5059
32.8795
32.1465
31.3014
30.3429
29.2743
28.1042
26.8467
25.5209
24.1501
22.7602
21.378
20.0294
18.7366
17.5197
16.3928
15.366
14.4382
13.6057
12.8628
12.2029
11.6186
11.1023
10.6464
10.2438
9.88812
9.57442
9.29786
9.0538
8.83816
8.64758
8.47931
8.33087
8.20005
8.08505
7.9845
7.89715
7.82102
7.75414
7.69472
7.64128
7.59248
7.54686
7.50254
7.45694
7.40695
7.34902
7.27903
7.19171
7.08121
6.94274
6.77374
6.57192
6.33594
6.06606
5.76457
5.43611
5.08752
4.72743
4.3655
4.01155
3.67462
3.3623
3.08024
2.83209
2.61999
2.44413
45.9522
25.1993
20.1959
17.6141
16.1726
15.38
14.9816
14.8366
14.8581
14.9975
15.2232
15.5142
15.856
16.2385
16.654
17.0963
17.56
18.04
18.5309
19.0277
19.5258
20.0213
20.5115
20.9957
21.4749
21.9518
22.4309
22.9173
23.4167
23.9342
24.4741
25.0396
25.6324
26.2526
26.8994
27.5706
28.2633
28.974
29.6987
30.4334
31.1737
31.9155
32.6549
33.388
34.1114
34.8218
35.5165
36.1928
36.8485
37.4817
38.0908
38.6744
39.2314
39.7608
40.262
40.7345
41.1777
41.5915
41.9756
42.3299
42.6543
42.9488
43.2134
43.4483
43.6535
43.8292
43.9756
44.0929
44.1813
44.2412
44.2728
44.2767
44.2533
44.203
44.1266
44.0248
43.8984
43.7484
43.5775
43.3859
43.1741
42.9433
42.6945
42.4292
42.1488
41.8551
41.55
41.2355
40.9139
40.5874
40.2584
39.9296
39.6033
39.2821
38.9686
38.6651
38.3739
38.0969
37.836
37.5925
37.3673
37.1606
36.9717
36.7992
36.6404
36.4911
36.3458
36.1971
36.0361
35.8519
35.6319
35.3623
35.0281
34.6141
34.1057
33.4899
32.7563
31.8985
30.9151
29.8105
28.5953
27.2865
25.9067
24.4828
23.0434
21.6191
20.2345
18.9158
17.6801
16.5425
15.5057
14.5688
13.7286
12.9794
12.3143
11.7261
11.2074
10.7499
10.3466
9.99155
9.67878
9.40302
9.15962
8.94462
8.75457
8.58646
8.43766
8.30594
8.18952
8.087
7.99622
7.9153
7.84258
7.77661
7.71607
7.65954
7.60525
7.55093
7.49378
7.4304
7.35677
7.26774
7.15791
7.02272
6.85816
6.66102
6.42911
6.16188
5.86089
5.53013
5.17603
4.8071
4.43322
4.06471
3.71141
3.38179
3.08239
2.81763
2.59012
2.40043
47.8687
26.5109
21.2724
18.4868
16.923
16.0659
15.6413
15.4901
15.5223
15.6808
15.9281
16.2389
16.5953
16.9845
17.3969
17.8254
18.2642
18.7086
19.1549
19.6002
20.0424
20.4804
20.9142
21.3454
21.7766
22.2117
22.6554
23.1127
23.5884
24.0871
24.6121
25.1659
25.7496
26.3633
27.0057
27.6748
28.3679
29.0815
29.8119
30.5552
31.3073
32.0642
32.8221
33.5771
34.3257
35.0648
35.7913
36.5026
37.1961
37.8698
38.5218
39.1505
39.7544
40.3324
40.8834
41.4066
41.9012
42.3667
42.8025
43.2082
43.5835
43.928
44.2415
44.5238
44.7748
44.9944
45.1825
45.3391
45.4643
45.5581
45.6207
45.6523
45.6531
45.6235
45.5639
45.4747
45.3567
45.2104
45.0386
44.8418
44.6206
44.3759
44.1089
43.8208
43.5133
43.1882
42.8474
42.4931
42.1277
41.7539
41.3743
40.9919
40.6096
40.2304
39.8574
39.4937
39.1423
38.8062
38.488
38.1903
37.9152
37.6643
37.4383
37.2375
37.0605
36.905
36.7669
36.6401
36.5167
36.3863
36.2365
36.0526
35.8181
35.5155
35.1267
34.6344
34.0234
33.2819
32.403
31.386
30.237
28.9699
27.6054
26.171
24.6948
23.215
21.7574
20.3493
19.0123
17.7674
16.6222
15.5797
14.6393
13.7973
13.0482
12.3846
11.7989
11.2826
10.8276
10.4281
10.0768
9.76741
9.49478
9.25417
9.0414
8.85284
8.68536
8.53628
8.40336
8.28502
8.17899
8.08335
7.99645
7.91689
7.8434
7.77465
7.70904
7.64457
7.57879
7.50849
7.42987
7.33827
7.22871
7.0961
6.93582
6.74384
6.51717
6.25436
5.9561
5.6256
5.26867
4.8935
4.50995
4.12872
3.7603
3.41399
3.09727
2.81538
2.57159
2.36701
49.1989
27.552
22.1461
19.1901
17.5222
16.6114
16.1654
16.017
16.0665
16.2503
16.5261
16.8644
17.2445
17.651
18.0726
18.5008
18.9295
19.3543
19.7724
20.1822
20.5834
20.977
21.3653
21.7514
22.1397
22.5348
22.9422
23.3669
23.8138
24.2871
24.7898
25.3242
25.8911
26.4904
27.121
27.781
28.4677
29.1778
29.9079
30.6542
31.4127
32.1796
32.951
33.7232
34.4927
35.2562
36.0106
36.753
37.4809
38.1919
38.8838
39.5549
40.2035
40.828
41.4272
41.9999
42.5451
43.0619
43.5495
44.007
44.434
44.8297
45.1937
45.5255
45.8247
46.0909
46.3239
46.5233
46.6891
46.8211
46.9191
46.9832
47.0133
47.0096
46.9723
46.9016
46.7979
46.6619
46.4945
46.2981
46.073
45.8197
45.5395
45.2335
44.9033
44.5507
44.1778
43.7869
43.3804
42.9611
42.5321
42.0964
41.6574
41.2185
40.7833
40.3554
39.9385
39.5363
39.1525
38.7905
38.4537
38.145
37.8667
37.6206
37.4072
37.226
37.0746
36.9489
36.8425
36.7463
36.6487
36.535
36.3881
36.1887
35.9159
35.5486
35.0668
34.4531
33.6948
32.785
31.725
30.5241
29.1999
27.782
26.3001
24.787
23.2738
21.7907
20.3639
19.0189
17.7694
16.6229
15.5821
14.6458
13.8098
13.0678
12.4121
11.8342
11.3259
10.8795
10.4873
10.1424
9.83885
9.57145
9.33498
9.12517
8.93838
8.77139
8.62146
8.48679
8.36498
8.254
8.15219
8.05817
7.97071
7.88862
7.81049
7.73458
7.65884
7.58022
7.49564
7.40067
7.29039
7.15964
7.00336
6.8169
6.59646
6.3397
6.04634
5.71868
5.36174
4.98317
4.59262
4.20095
3.81914
3.45726
3.12367
2.82456
2.56395
2.34365
49.8617
28.3011
22.8249
19.7364
17.986
17.0342
16.5768
16.4381
16.5105
16.7248
17.0344
17.4065
17.8175
18.2499
18.6905
19.1298
19.5611
19.9797
20.3833
20.7712
21.1442
21.5049
21.8569
22.2049
22.5545
22.9114
23.2817
23.6711
24.0846
24.5267
25.0004
25.5081
26.0507
26.6282
27.2396
27.8832
28.5565
29.2565
29.9797
30.7227
31.4816
32.2527
33.0321
33.8162
34.6014
35.3843
36.1618
36.9308
37.6887
38.4329
39.161
39.8711
40.5611
41.2294
41.8743
42.4944
43.0884
43.6551
44.1934
44.7022
45.1807
45.6278
46.0429
46.4251
46.7739
47.0885
47.3684
47.6132
47.8224
47.9956
48.1325
48.2328
48.2963
48.3229
48.3124
48.2649
48.1806
48.0598
47.9027
47.7121
47.4881
47.2314
46.943
46.6239
46.2759
45.9005
45.4998
45.0762
44.6322
44.1708
43.695
43.2082
42.714
42.2161
41.7184
41.225
40.7401
40.2681
39.8133
39.3802
38.9732
38.5964
38.2535
37.948
37.6821
37.4574
37.2735
37.1285
37.0181
36.935
36.8692
36.8069
36.7312
36.622
36.4563
36.21
35.8586
35.3792
34.7528
33.9665
33.0157
31.9042
30.6519
29.2801
27.8168
26.2943
24.7464
23.2067
21.7059
20.2715
18.9256
17.6801
16.5416
15.5118
14.5886
13.7668
13.0393
12.3979
11.834
11.3389
10.9045
10.5231
10.1878
9.89251
9.6314
9.39949
9.1928
9.00748
8.84023
8.68876
8.55074
8.42397
8.30669
8.19753
8.09533
7.999
7.90735
7.81885
7.73202
7.64425
7.55258
7.45306
7.34102
7.21131
7.05863
6.8778
6.66433
6.41499
6.1285
5.80614
5.45199
5.07296
4.6783
4.2788
3.88573
3.50982
3.16028
2.84424
2.56661
2.33003
49.8788
28.7422
23.2767
20.1181
18.3183
17.3479
16.8963
16.7789
16.8821
17.1329
17.4812
17.8919
18.3389
18.803
19.2697
19.7283
20.1713
20.594
20.9938
21.3705
21.7257
22.0627
22.3862
22.7021
23.0167
23.3371
23.67
24.0217
24.398
24.8036
25.2422
25.7162
26.2272
26.7753
27.36
27.9796
28.632
29.3145
30.0239
30.7568
31.5095
32.2785
33.06
33.8503
34.6458
35.4431
36.2388
37.03
37.8137
38.5872
39.3481
40.094
40.8227
41.5323
42.2209
42.8868
43.5284
44.1442
44.7329
45.293
45.8233
46.3226
46.7899
47.2239
47.6239
47.9889
48.318
48.6106
48.8659
49.0833
49.2621
49.4019
49.5022
49.5625
49.5826
49.5622
49.5012
49.3996
49.2575
49.0764
48.8574
48.6012
48.3083
47.98
47.6177
47.2232
46.7984
46.3456
45.8676
45.3671
44.8475
44.3121
43.7648
43.2093
42.65
42.0911
41.5373
40.9935
40.4646
39.9558
39.4724
39.0196
38.6025
38.2258
37.8939
37.6099
37.3759
37.1924
37.0573
36.966
36.9105
36.8791
36.8557
36.8204
36.7494
36.616
36.3919
36.0494
35.5632
34.9138
34.0921
33.0989
31.9437
30.6439
29.225
27.7185
26.1594
24.5838
23.026
21.5168
20.0847
18.7472
17.5151
16.3938
15.3837
14.4815
13.681
12.9743
12.3527
11.8071
11.3287
10.9092
10.5409
10.2166
9.93007
9.67564
9.44845
9.24417
9.0591
8.8903
8.73556
8.59246
8.45913
8.33417
8.21647
8.10508
7.99904
7.8972
7.79822
7.70008
7.60013
7.49486
7.37993
7.25035
7.10066
6.92535
6.71928
6.47841
6.20046
5.8856
5.53688
5.16029
4.76444
4.35985
3.95792
3.56985
3.20563
2.87331
2.57879
2.32563
49.3673
28.9881
23.4249
20.2553
18.4791
17.5387
17.1202
17.0384
17.1791
17.468
17.8543
18.3015
18.7827
19.2776
19.7708
20.2509
20.71
21.1428
21.5466
21.9211
22.2681
22.5913
22.896
23.1885
23.476
23.7659
24.0657
24.3824
24.7225
25.0911
25.4926
25.93
26.4053
26.9191
27.4714
28.061
28.6861
29.3444
30.0329
30.7484
31.4877
32.2472
33.0235
33.8133
34.6118
35.416
36.2227
37.0287
37.8312
38.6272
39.4141
40.1894
40.9508
41.6959
42.4226
43.129
43.8133
44.4738
45.1088
45.7166
46.2956
46.8444
47.3615
47.8456
48.2955
48.7099
49.0878
49.4282
49.73
49.9924
50.2144
50.3953
50.5344
50.631
50.6846
50.6946
50.6607
50.5827
50.4605
50.2941
50.0856
49.8354
49.5441
49.2128
48.8428
48.4359
47.9939
47.5191
47.0142
46.4821
45.9259
45.3491
44.7555
44.1491
43.5342
42.9153
42.2975
41.6856
41.0853
40.5021
39.942
39.4111
38.9155
38.4614
38.0544
37.6997
37.4016
37.1628
36.9839
36.8633
36.7955
36.7712
36.7768
36.7932
36.797
36.76
36.6513
36.439
36.0922
35.5876
34.909
34.0488
33.0096
31.8039
30.4535
28.9881
27.4427
25.8548
24.2614
22.6967
21.1944
19.7774
18.4615
17.256
16.1643
15.1852
14.3138
13.5431
12.8645
12.2687
11.7464
11.2887
10.8871
10.5339
10.2219
9.94492
9.69733
9.47427
9.27155
9.08574
8.91447
8.75514
8.60581
8.46499
8.33163
8.20489
8.08402
7.96818
7.85633
7.74689
7.63764
7.52554
7.40663
7.27616
7.1287
6.95849
6.75992
6.52818
6.26004
5.95455
5.61361
5.24219
4.84806
4.44126
4.03309
3.63504
3.25778
2.91025
2.59933
2.32963
48.3106
28.7027
23.2571
20.2147
18.5328
17.6596
17.2914
17.2501
17.4255
17.7456
18.1608
18.6353
19.142
19.6605
20.1751
20.6741
21.1489
21.5941
22.0065
22.3854
22.7323
23.0508
23.346
23.6246
23.8937
24.1613
24.4352
24.723
25.0314
25.3664
25.733
26.1347
26.5742
27.0529
27.5709
28.1279
28.7224
29.3525
30.0156
30.7088
31.429
32.1729
32.9371
33.7179
34.5118
35.3152
36.125
36.9379
37.7508
38.5609
39.3653
40.1616
40.9476
41.7197
42.476
43.2145
43.9333
44.6303
45.3037
45.9516
46.5723
47.1637
47.7242
48.2523
48.7465
49.2054
49.6276
50.0118
50.3568
50.6614
50.9245
51.1451
51.3222
51.4549
51.5425
51.5842
51.5794
51.5277
51.4287
51.2821
51.0895
50.8515
50.5684
50.2413
49.8714
49.4603
49.0099
48.5224
48.0003
47.4464
46.8639
46.2563
45.6271
44.9805
44.3207
43.6524
42.9805
42.3103
41.6474
40.9978
40.3679
39.7644
39.1942
38.6644
38.1819
37.7535
37.3852
37.082
36.8471
36.6814
36.5826
36.5443
36.5554
36.5991
36.6529
36.689
36.6749