/*--------------------------------*- C++ -*----------------------------------*\
  =========                 |
  \\      /  F ield         | OpenFOAM: The Open Source CFD Toolbox
   \\    /   O peration     | Website:  https://openfoam.org
    \\  /    A nd           | Version:  9
     \\/     M anipulation  |
\*---------------------------------------------------------------------------*/
FoamFile
{
    format      ascii;
    class       volScalarField;
    location    "0.18";
    object      k;
}
// * * * * * * * * * * * * * * * * * * * * * * * * * * * * * * * * * * * * * //

dimensions      [0 2 -2 0 0 0 0];

internalField   nonuniform List<scalar> 
12225
(
0.267026
0.161106
0.104766
0.0752368
0.0593733
0.0502317
0.044361
0.040148
0.0368679
0.0341874
0.0319364
0.0300189
0.028454
0.027256
0.0264676
0.0263759
0.0281613
0.0359166
0.336675
0.251704
0.198056
0.166241
0.146358
0.132828
0.122824
0.114934
0.108445
0.102971
0.0982809
0.0942265
0.0907451
0.0877284
0.0852513
0.0835006
0.0846919
0.0901709
0.345817
0.286759
0.240735
0.208199
0.185162
0.168309
0.155422
0.145139
0.136651
0.129475
0.123301
0.117924
0.113209
0.109073
0.105575
0.103013
0.103649
0.11508
0.350454
0.305557
0.266381
0.235524
0.211774
0.193374
0.178812
0.166983
0.157142
0.148793
0.141601
0.135335
0.129827
0.125001
0.120902
0.117881
0.117615
0.1246
0.353356
0.317017
0.283328
0.254907
0.231708
0.212893
0.197515
0.184762
0.174018
0.164834
0.156889
0.149949
0.143836
0.138478
0.133912
0.130462
0.129329
0.13296
0.355322
0.324553
0.295155
0.269227
0.247146
0.228583
0.212977
0.199768
0.188478
0.178733
0.170245
0.162796
0.156217
0.150439
0.145494
0.141657
0.139773
0.141237
0.356698
0.32974
0.303685
0.280045
0.259293
0.241352
0.22591
0.212591
0.201044
0.190969
0.182123
0.174314
0.167391
0.161289
0.156035
0.151847
0.149297
0.149224
0.357674
0.333401
0.309949
0.288316
0.268916
0.251782
0.236748
0.223567
0.211987
0.201775
0.192733
0.184699
0.177545
0.171204
0.165702
0.161197
0.158063
0.156819
0.358368
0.336015
0.314585
0.294661
0.276541
0.260283
0.245798
0.232924
0.221479
0.211284
0.202183
0.194042
0.186757
0.180257
0.174565
0.169785
0.166154
0.164004
0.358858
0.33788
0.318013
0.299513
0.282552
0.267167
0.253299
0.240836
0.229643
0.219585
0.210536
0.202388
0.195055
0.188476
0.182652
0.177652
0.173621
0.17078
0.359201
0.339204
0.320526
0.303191
0.287244
0.27268
0.259444
0.247447
0.236584
0.226748
0.217837
0.209761
0.202452
0.195859
0.189964
0.184805
0.180474
0.177131
0.359417
0.340052
0.322191
0.305709
0.290552
0.276669
0.263993
0.25244
0.241919
0.232338
0.223611
0.215662
0.20843
0.201872
0.195969
0.190737
0.186237
0.182588
0.359571
0.34066
0.323423
0.307627
0.293139
0.279862
0.267708
0.25659
0.246422
0.237121
0.228612
0.220827
0.213713
0.207228
0.201355
0.196097
0.191501
0.187649
0.359689
0.341133
0.324408
0.309209
0.295337
0.282648
0.271026
0.260375
0.250605
0.241638
0.233404
0.225842
0.218902
0.212546
0.206753
0.201521
0.196887
0.192914
0.359772
0.341467
0.325126
0.310405
0.297057
0.284896
0.273781
0.263596
0.254246
0.245649
0.237737
0.230451
0.223743
0.217576
0.211926
0.206787
0.202188
0.198173
0.359825
0.341677
0.325594
0.311216
0.298268
0.286539
0.27586
0.2661
0.257153
0.24893
0.24136
0.234382
0.227949
0.222021
0.216574
0.211595
0.207107
0.203138
0.359856
0.341791
0.325856
0.311691
0.299009
0.287585
0.277236
0.267817
0.25921
0.251319
0.244068
0.237393
0.231242
0.225575
0.220361
0.215587
0.211268
0.207417
0.359869
0.341837
0.325966
0.311901
0.299357
0.288103
0.277949
0.268745
0.260365
0.25271
0.245698
0.23926
0.233343
0.227901
0.2229
0.218324
0.21418
0.210467
0.359868
0.341826
0.325944
0.311872
0.299329
0.288084
0.277952
0.268783
0.260454
0.252864
0.245929
0.239582
0.233764
0.228429
0.223541
0.219075
0.215035
0.211408
0.359842
0.34172
0.325706
0.311456
0.298697
0.287213
0.276834
0.267423
0.258865
0.25107
0.243958
0.237461
0.231521
0.226089
0.221125
0.216602
0.212516
0.208853
0.359781
0.341473
0.325165
0.310535
0.297339
0.285394
0.274556
0.264709
0.255751
0.247599
0.240174
0.233413
0.227253
0.221638
0.216525
0.211878
0.207689
0.203945
0.359651
0.340944
0.324046
0.308702
0.294743
0.282047
0.270508
0.260032
0.250527
0.241907
0.234091
0.227006
0.220585
0.214769
0.209499
0.204729
0.200441
0.196624
0.359396
0.339924
0.321973
0.305461
0.290354
0.276609
0.264162
0.252925
0.2428
0.233686
0.225485
0.218106
0.211465
0.205488
0.200114
0.195282
0.190955
0.187124
0.358939
0.338107
0.318448
0.300212
0.283555
0.268512
0.255028
0.242994
0.232279
0.222746
0.21426
0.2067
0.199958
0.19394
0.188567
0.183774
0.179509
0.175755
0.358169
0.335052
0.312796
0.292201
0.273627
0.257138
0.242626
0.229902
0.218757
0.208991
0.200418
0.192873
0.186216
0.180331
0.175118
0.170498
0.166417
0.162852
0.356937
0.330073
0.304025
0.28038
0.259632
0.241733
0.2264
0.213279
0.202027
0.192343
0.183977
0.176716
0.170386
0.164845
0.15998
0.155701
0.151936
0.148674
0.355026
0.321936
0.290452
0.263103
0.240181
0.221227
0.205579
0.192597
0.181743
0.172592
0.164819
0.15817
0.152445
0.147485
0.143169
0.139402
0.136103
0.133246
0.352115
0.308059
0.268837
0.23742
0.212903
0.1938
0.178767
0.166755
0.156996
0.148949
0.14223
0.136565
0.131747
0.127619
0.124061
0.120985
0.118308
0.11598
0.346658
0.281405
0.231898
0.197161
0.172727
0.155139
0.142103
0.132139
0.124305
0.118004
0.112843
0.108559
0.104973
0.101947
0.0993826
0.0972061
0.0953385
0.0936863
0.300487
0.214633
0.158258
0.121045
0.0963699
0.0798852
0.0686825
0.0608401
0.0551439
0.0508517
0.0475116
0.0448443
0.042682
0.0409111
0.0394418
0.0382107
0.0371752
0.0363136
0.0165151
0.0411826
0.0552651
0.0664347
0.0755555
0.0831103
0.0894242
0.0947353
0.0992285
0.103056
0.106349
0.109233
0.111843
0.114341
0.116902
0.119586
0.122387
0.125285
0.128253
0.131267
0.134284
0.137114
0.139341
0.140738
0.142437
0.143888
0.139811
0.145138
0.140885
0.142592
0.151558
0.153533
0.148465
0.146084
0.131769
0.134362
0.138014
0.142621
0.15127
0.160686
0.170341
0.180033
0.189635
0.199052
0.208216
0.217074
0.225592
0.23375
0.241534
0.248942
0.255976
0.262645
0.268959
0.274931
0.280576
0.285908
0.290943
0.295694
0.300176
0.304401
0.308381
0.312127
0.315649
0.318958
0.322062
0.32497
0.327693
0.330243
0.332635
0.33489
0.337039
0.339131
0.341222
0.343172
0.344985
0.346662
0.348196
0.349589
0.350844
0.351962
0.352943
0.353785
0.354485
0.355038
0.355442
0.35569
0.355775
0.35569
0.355426
0.354969
0.354306
0.353422
0.352299
0.350919
0.349261
0.347304
0.345025
0.3424
0.339404
0.33601
0.332192
0.327924
0.32318
0.317937
0.312173
0.305871
0.299021
0.291616
0.283663
0.275174
0.266178
0.256714
0.246838
0.236617
0.226137
0.215502
0.20483
0.194249
0.183991
0.174615
0.166868
0.163122
0.179566
0.16767
0.17454
0.169944
0.168325
0.173986
0.170891
0.168177
0.166452
0.16561
0.163254
0.173873
0.16991
0.164646
0.159578
0.155971
0.162122
0.174202
0.172089
0.168061
0.165435
0.167414
0.169133
0.167919
0.168336
0.170052
0.174579
0.177666
0.17578
0.174086
0.174646
0.174516
0.173609
0.181017
0.176055
0.162939
0.161227
0.180324
0.172384
0.182847
0.158964
0.182833
0.179438
0.173522
0.166624
0.159804
0.152824
0.145756
0.138709
0.131795
0.125108
0.118719
0.112671
0.106973
0.101593
0.0964585
0.0913811
0.0862464
0.0240033
0.0566606
0.0768314
0.0912455
0.102244
0.11091
0.117885
0.123594
0.128349
0.132396
0.135939
0.139159
0.14223
0.145317
0.148589
0.152113
0.15597
0.160234
0.164959
0.170175
0.175873
0.182009
0.188557
0.195554
0.203042
0.210906
0.219703
0.227819
0.237493
0.247343
0.255651
0.263171
0.271486
0.278857
0.285081
0.293173
0.302878
0.314253
0.325291
0.335958
0.34697
0.358308
0.369853
0.381488
0.393114
0.404639
0.415981
0.427068
0.43784
0.448252
0.458268
0.467867
0.477037
0.485775
0.494084
0.501974
0.509459
0.516554
0.523276
0.529645
0.53568
0.541398
0.546818
0.551956
0.556831
0.561456
0.565847
0.570016
0.573977
0.577742
0.581322
0.584729
0.587998
0.591165
0.594218
0.597155
0.599977
0.60269
0.605298
0.607799
0.610194
0.612479
0.61465
0.616701
0.618625
0.620409
0.622044
0.623512
0.624796
0.625874
0.626718
0.6273
0.627584
0.627532
0.627099
0.626238
0.624897
0.62302
0.620545
0.617408
0.613543
0.60888
0.603351
0.596886
0.589421
0.580897
0.571263
0.56048
0.548528
0.535403
0.521128
0.505751
0.489354
0.472049
0.453982
0.43533
0.4163
0.397122
0.378056
0.359437
0.341742
0.325685
0.312569
0.29347
0.285643
0.274818
0.265626
0.256659
0.249218
0.242988
0.238067
0.234312
0.232451
0.230184
0.226222
0.222301
0.219325
0.218732
0.220281
0.221349
0.219602
0.217345
0.216228
0.216834
0.217234
0.217101
0.217885
0.219556
0.221988
0.223472
0.223259
0.223173
0.22403
0.22496
0.226146
0.228215
0.226686
0.224486
0.222862
0.22782
0.225537
0.226893
0.219368
0.223586
0.219539
0.213239
0.205889
0.19831
0.190425
0.182331
0.174169
0.166083
0.158208
0.15065
0.14348
0.136729
0.130382
0.124395
0.118662
0.11331
0.0365946
0.0755962
0.0988356
0.115067
0.127304
0.136912
0.144659
0.151043
0.156425
0.161096
0.165304
0.16928
0.173242
0.177403
0.181886
0.186824
0.192376
0.19869
0.205891
0.214061
0.223236
0.233361
0.244407
0.256345
0.268745
0.281091
0.293339
0.305042
0.316475
0.327616
0.338061
0.347927
0.357677
0.367366
0.377252
0.388171
0.400332
0.413606
0.427557
0.441986
0.456906
0.472207
0.48771
0.503228
0.518594
0.533662
0.548314
0.562459
0.576027
0.588974
0.601276
0.612922
0.623916
0.634271
0.644008
0.653151
0.661727
0.669766
0.677296
0.684348
0.69095
0.697129
0.702912
0.708324
0.713389
0.71813
0.72257
0.726729
0.730626
0.73428
0.737707
0.740921
0.743931
0.746859
0.749671
0.752356
0.754915
0.757346
0.759654
0.76184
0.763906
0.765853
0.76768
0.769383
0.770957
0.772394
0.773683
0.774811
0.775759
0.776506
0.777024
0.777283
0.777244
0.776868
0.776104
0.774899
0.773194
0.770924
0.768017
0.764397
0.759986
0.754699
0.748451
0.741157
0.732736
0.723109
0.712209
0.69998
0.686384
0.671404
0.65505
0.637363
0.618419
0.598332
0.577259
0.555393
0.532972
0.510268
0.487585
0.465263
0.443707
0.423219
0.403638
0.384036
0.368726
0.353694
0.340189
0.327741
0.317266
0.308222
0.300475
0.293827
0.28839
0.282572
0.277888
0.274014
0.270879
0.268602
0.266944
0.264744
0.26284
0.261316
0.260507
0.260042
0.259666
0.259759
0.260375
0.261391
0.262311
0.262826
0.263267
0.263942
0.264874
0.265951
0.267111
0.267289
0.267081
0.266806
0.265103
0.265942
0.264925
0.262635
0.258201
0.256303
0.25118
0.244242
0.236258
0.227828
0.218964
0.209791
0.200475
0.191194
0.182114
0.173374
0.165077
0.157279
0.149989
0.143184
0.136831
0.131075
0.0508491
0.0954993
0.121395
0.13918
0.152501
0.162969
0.171454
0.178511
0.184544
0.189881
0.194807
0.199586
0.204468
0.209701
0.215358
0.22166
0.228811
0.236973
0.246271
0.256778
0.268537
0.281276
0.294741
0.308684
0.322718
0.336448
0.349643
0.362189
0.374175
0.38579
0.397162
0.4085
0.420102
0.43225
0.44525
0.4594
0.474764
0.491194
0.508407
0.526148
0.54423
0.562464
0.580659
0.598632
0.616227
0.633314
0.649793
0.66559
0.680654
0.694958
0.708489
0.72125
0.733253
0.74452
0.755077
0.764953
0.774179
0.78279
0.790816
0.79829
0.805244
0.811707
0.817709
0.823277
0.828437
0.833216
0.837638
0.841726
0.845501
0.848984
0.852194
0.855149
0.857863
0.860389
0.862786
0.86503
0.867119
0.869052
0.870833
0.872468
0.873962
0.875319
0.876541
0.87763
0.878583
0.879399
0.88007
0.880586
0.880935
0.881097
0.881051
0.880768
0.880215
0.879353
0.878134
0.876505
0.874409
0.871777
0.868537
0.864608
0.859907
0.854342
0.847821
0.840248
0.831529
0.821573
0.810298
0.79763
0.783512
0.76791
0.750813
0.732243
0.712257
0.690954
0.668476
0.645011
0.620791
0.596094
0.571224
0.546513
0.522311
0.498872
0.47626
0.45471
0.435418
0.417274
0.400804
0.385997
0.373059
0.361678
0.351671
0.342838
0.335077
0.327917
0.321956
0.316907
0.312563
0.308827
0.305588
0.302514
0.300086
0.298202
0.296835
0.295719
0.294883
0.294549
0.294594
0.294871
0.295116
0.295316
0.29573
0.296333
0.297003
0.297697
0.298274
0.298192
0.298017
0.297577
0.2962
0.295519
0.293901
0.29079
0.286648
0.282506
0.276499
0.268912
0.260306
0.251084
0.241313
0.231141
0.220759
0.210373
0.200179
0.190352
0.181024
0.17228
0.164155
0.156653
0.149787
0.143676
0.0660088
0.116081
0.144422
0.163634
0.177986
0.189313
0.198565
0.206338
0.21307
0.219116
0.224788
0.230378
0.236165
0.242245
0.248852
0.256226
0.264593
0.274086
0.284737
0.296554
0.309432
0.323144
0.337401
0.35188
0.366247
0.380223
0.393665
0.406598
0.419196
0.431727
0.444467
0.45768
0.471616
0.486493
0.502459
0.51957
0.537757
0.556833
0.576545
0.596638
0.616892
0.637107
0.657102
0.676719
0.695823
0.714307
0.732087
0.749104
0.765317
0.780705
0.795261
0.808988
0.821901
0.83402
0.845371
0.855982
0.865884
0.875108
0.883687
0.891651
0.899032
0.90586
0.912164
0.917971
0.923309
0.928203
0.932678
0.936757
0.940463
0.943818
0.946842
0.949553
0.95197
0.954109
0.956062
0.957823
0.95939
0.960763
0.961949
0.962954
0.963787
0.964456
0.964967
0.965326
0.965537
0.965603
0.965522
0.965292
0.964904
0.964347
0.963607
0.962661
0.961483
0.960039
0.95829
0.956188
0.953678
0.950698
0.947178
0.943039
0.938196
0.932558
0.926026
0.9185
0.909877
0.900055
0.888934
0.876426
0.862452
0.846953
0.829893
0.811264
0.791095
0.769455
0.746457
0.722264
0.697088
0.671189
0.644861
0.618426
0.592222
0.566548
0.541644
0.517878
0.495736
0.475026
0.455946
0.43876
0.423473
0.409887
0.397818
0.38708
0.377522
0.368996
0.36162
0.355208
0.349576
0.34461
0.340254
0.33642
0.333252
0.330654
0.328542
0.326778
0.325388
0.324448
0.323848
0.323477
0.323223
0.323093
0.323192
0.323441
0.323718
0.323963
0.324062
0.323786
0.323344
0.322556
0.32117
0.319684
0.317415
0.31394
0.309516
0.304293
0.297584
0.289398
0.280213
0.270268
0.259666
0.248575
0.237206
0.225789
0.214553
0.203704
0.193407
0.183778
0.174881
0.166746
0.15941
0.152964
0.0816108
0.136559
0.167461
0.188152
0.203585
0.215842
0.225942
0.234511
0.242004
0.248793
0.255206
0.26155
0.268029
0.274772
0.282053
0.290103
0.299104
0.309171
0.320335
0.332542
0.345645
0.359423
0.373607
0.387926
0.402149
0.416123
0.429825
0.443364
0.456953
0.470864
0.48536
0.500665
0.516942
0.534291
0.55273
0.572199
0.592558
0.613611
0.635132
0.656893
0.678686
0.700327
0.721654
0.742526
0.762827
0.782463
0.80136
0.819464
0.836739
0.853163
0.868728
0.883434
0.897292
0.910318
0.922534
0.933965
0.944637
0.954579
0.963819
0.972388
0.980313
0.987623
0.994345
1.00051
1.00613
1.01125
1.01587
1.02004
1.02376
1.02706
1.02997
1.0325
1.03466
1.0365
1.03801
1.0393
1.04035
1.04115
1.04173
1.04207
1.0422
1.04213
1.04187
1.04142
1.04081
1.04003
1.03909
1.038
1.03676
1.03536
1.0338
1.03206
1.03013
1.02798
1.02559
1.02291
1.01991
1.01652
1.01268
1.00832
1.00336
0.997714
0.991281
0.983958
0.975638
0.966208
0.955557
0.943579
0.930173
0.915253
0.898753
0.880631
0.860877
0.839521
0.816638
0.792353
0.766844
0.74034
0.713117
0.685484
0.657781
0.630347
0.603511
0.577653
0.55313
0.530045
0.508552
0.488986
0.471377
0.455598
0.441486
0.42887
0.417593
0.40755
0.398699
0.390894
0.383985
0.377856
0.372452
0.367731
0.363698
0.360265
0.357352
0.354878
0.352837
0.351229
0.34997
0.348983
0.348215
0.347649
0.347299
0.347086
0.346908
0.346696
0.346363
0.345789
0.344998
0.343856
0.342229
0.340184
0.337392
0.333582
0.328767
0.322871
0.315582
0.30687
0.297155
0.286554
0.275193
0.263254
0.250965
0.23858
0.226355
0.21453
0.203303
0.192822
0.183183
0.174437
0.166639
0.159847
0.096717
0.15624
0.190073
0.212366
0.228969
0.242252
0.253313
0.262769
0.271091
0.278656
0.285784
0.292778
0.29972
0.306896
0.314555
0.322904
0.3321
0.342238
0.353337
0.365339
0.378114
0.391482
0.405242
0.419213
0.433264
0.447346
0.461505
0.47588
0.490668
0.506087
0.522333
0.539548
0.557812
0.577136
0.597465
0.618687
0.640643
0.663147
0.685995
0.708989
0.731944
0.754695
0.777096
0.799019
0.820361
0.841033
0.860966
0.880107
0.89842
0.915879
0.932471
0.948193
0.963049
0.977049
0.990209
1.00255
1.01409
1.02485
1.03487
1.04415
1.05274
1.06065
1.06791
1.07455
1.08058
1.08603
1.09093
1.09529
1.09913
1.10249
1.10536
1.10779
1.10979
1.11137
1.11256
1.11342
1.11398
1.11425
1.11422
1.11391
1.11334
1.11251
1.11144
1.11015
1.10865
1.10695
1.10508
1.10303
1.10083
1.09847
1.09596
1.0933
1.09048
1.08749
1.08431
1.08092
1.07728
1.07335
1.06908
1.0644
1.05926
1.05356
1.04721
1.04011
1.03216
1.02323
1.01321
1.00197
0.989387
0.975356
0.959775
0.942565
0.923673
0.903085
0.880826
0.856975
0.831664
0.805083
0.777476
0.749135
0.720395
0.691617
0.663175
0.635464
0.608845
0.583553
0.559807
0.537877
0.517958
0.499966
0.483771
0.469223
0.456172
0.444502
0.434119
0.424888
0.416676
0.409368
0.402889
0.397189
0.392221
0.387902
0.384156
0.380922
0.378169
0.375861
0.37393
0.372314
0.370982
0.369893
0.369018
0.368285
0.367607
0.366914
0.366131
0.36517
0.363982
0.362455
0.360474
0.357965
0.354727
0.35056
0.345347
0.338943
0.331153
0.322018
0.311814
0.300623
0.288574
0.275858
0.262716
0.249421
0.236257
0.223494
0.211364
0.20005
0.189677
0.18032
0.172041
0.164878
0.111066
0.174631
0.211723
0.235774
0.25361
0.267973
0.280036
0.290455
0.299683
0.308082
0.315968
0.323443
0.330798
0.338294
0.346156
0.354572
0.363687
0.373592
0.384316
0.395828
0.408045
0.420854
0.434134
0.447788
0.461762
0.476068
0.490778
0.506019
0.521945
0.538705
0.556419
0.57516
0.594943
0.615727
0.637424
0.659906
0.683016
0.706579
0.730417
0.754354
0.778227
0.801884
0.825193
0.848038
0.870318
0.891951
0.912867
0.933014
0.952349
0.970845
0.988481
1.00525
1.02114
1.03617
1.05034
1.06366
1.07615
1.08783
1.09872
1.10883
1.11819
1.12682
1.13473
1.14196
1.14852
1.15443
1.15971
1.16438
1.16847
1.17198
1.17495
1.17738
1.1793
1.18073
1.1817
1.18221
1.18236
1.18214
1.18156
1.18063
1.17937
1.1778
1.17592
1.17377
1.17136
1.16871
1.16584
1.16277
1.15952
1.1561
1.15253
1.14881
1.14496
1.14098
1.13685
1.13258
1.12814
1.1235
1.11863
1.11349
1.10801
1.10212
1.09575
1.0888
1.08117
1.07273
1.06336
1.05293
1.0413
1.02834
1.01391
0.997895
0.980201
0.96076
0.939547
0.916584
0.891948
0.865779
0.838279
0.80971
0.780391
0.750686
0.720993
0.691725
0.663276
0.635967
0.610086
0.585896
0.563703
0.54349
0.525172
0.508629
0.493726
0.480343
0.468365
0.457661
0.448101
0.439567
0.431965
0.425228
0.419284
0.414048
0.409446
0.405418
0.401915
0.398886
0.396264
0.393995
0.39205
0.390377
0.388927
0.38763
0.38641
0.385198
0.383922
0.382505
0.38087
0.378915
0.376523
0.373578
0.369923
0.365381
0.359781
0.352951
0.344739
0.335252
0.324617
0.312906
0.300246
0.28683
0.272906
0.258764
0.244711
0.231047
0.218038
0.205902
0.194793
0.184811
0.176023
0.168454
0.124256
0.191635
0.232018
0.257698
0.276734
0.292211
0.305356
0.316814
0.327019
0.336311
0.344871
0.35293
0.360759
0.368594
0.376638
0.385069
0.394028
0.403615
0.413886
0.424853
0.436493
0.44876
0.461607
0.475003
0.488948
0.50348
0.518675
0.53463
0.551451
0.569229
0.588025
0.607859
0.628707
0.650501
0.673141
0.696496
0.720418
0.744748
0.769326
0.793993
0.818602
0.843014
0.867107
0.890769
0.913905
0.936433
0.958282
0.979398
0.999734
1.01926
1.03794
1.05577
1.07273
1.08882
1.10404
1.1184
1.13191
1.14458
1.15642
1.16744
1.17767
1.18711
1.19579
1.20372
1.21092
1.21741
1.22319
1.2283
1.23274
1.23654
1.23971
1.24227
1.24423
1.24562
1.24645
1.24674
1.24656
1.24594
1.24488
1.2434
1.2415
1.23922
1.23657
1.23357
1.23025
1.22663
1.22274
1.21861
1.21425
1.20969
1.20497
1.20009
1.19509
1.18997
1.18474
1.17942
1.174
1.16846
1.1628
1.15698
1.15096
1.1447
1.13813
1.13115
1.12369
1.11563
1.10685
1.09719
1.08653
1.07469
1.06153
1.04689
1.03062
1.01262
0.992794
0.971107
0.947573
0.922273
0.895352
0.86703
0.837596
0.807403
0.776851
0.746372
0.716393
0.687303
0.659455
0.633151
0.608755
0.586343
0.565887
0.547305
0.530489
0.515324
0.501691
0.48946
0.478502
0.468691
0.459921
0.452104
0.445152
0.438978
0.433502
0.428657
0.424382
0.420614
0.417287
0.414343
0.411745
0.409445
0.407379
0.405481
0.403679
0.401905
0.40009
0.398159
0.396028
0.393599
0.390756
0.38737
0.383299
0.378371
0.372394
0.365183
0.35664
0.346851
0.335847
0.323691
0.310503
0.296472
0.281847
0.266929
0.252045
0.237523
0.223662
0.210714
0.198863
0.188234
0.178904
0.170889
0.135938
0.206949
0.250443
0.277562
0.297741
0.314304
0.328533
0.341063
0.352306
0.362519
0.371894
0.380696
0.389148
0.397454
0.405796
0.41434
0.42323
0.432581
0.442481
0.452987
0.464132
0.475933
0.488403
0.501561
0.515443
0.530102
0.545603
0.56202
0.579419
0.59785
0.617333
0.637855
0.65937
0.681798
0.705034
0.728954
0.753419
0.778282
0.803398
0.828623
0.853818
0.878857
0.903622
0.928006
0.951917
0.975271
0.997997
1.02004
1.04134
1.06186
1.08157
1.10046
1.11849
1.13566
1.15196
1.1674
1.18197
1.19568
1.20853
1.22054
1.23171
1.24206
1.25159
1.26033
1.26827
1.27544
1.28184
1.2875
1.29242
1.29662
1.30012
1.30292
1.30505
1.30651
1.30734
1.30754
1.30713
1.30621
1.30476
1.30281
1.30036
1.29744
1.29407
1.29028
1.28608
1.28151
1.2766
1.27139
1.2659
1.26016
1.25422
1.2481
1.24184
1.23547
1.229
1.22247
1.21588
1.20926
1.20259
1.19588
1.1891
1.18222
1.17521
1.16799
1.16049
1.15261
1.14423
1.13522
1.12543
1.11468
1.10279
1.08959
1.07489
1.05852
1.04035
1.02025
0.998194
0.974176
0.948281
0.920671
0.891592
0.861365
0.830382
0.799081
0.767919
0.73734
0.707757
0.679542
0.653047
0.628505
0.605936
0.585307
0.566544
0.54955
0.534213
0.520408
0.508004
0.496872
0.486893
0.477962
0.46998
0.462851
0.456486
0.450809
0.445747
0.441228
0.437182
0.433546
0.430268
0.42731
0.424599
0.422067
0.419646
0.41727
0.414871
0.412376
0.409703
0.406757
0.403424
0.399578
0.395078
0.389753
0.383408
0.375855
0.367058
0.357007
0.345699
0.333179
0.319553
0.304998
0.289762
0.274151
0.258505
0.243177
0.228498
0.21475
0.202154
0.190856
0.180948
0.172447
0.146081
0.220405
0.266561
0.294913
0.316087
0.333644
0.348917
0.36255
0.374898
0.386149
0.396551
0.406304
0.415588
0.424571
0.433414
0.442271
0.451284
0.460584
0.470284
0.480482
0.491259
0.502683
0.514816
0.527719
0.541452
0.55608
0.571665
0.588263
0.605918
0.624652
0.644462
0.665317
0.687159
0.709905
0.733452
0.757681
0.782461
0.807659
0.833139
0.858766
0.884411
0.909955
0.935283
0.960293
0.984891
1.00899
1.03253
1.05543
1.07765
1.09913
1.11984
1.13976
1.15885
1.17709
1.19448
1.21101
1.22667
1.24145
1.25536
1.26841
1.28059
1.29191
1.30237
1.31199
1.32077
1.32872
1.33584
1.34216
1.34767
1.35239
1.35633
1.35949
1.36191
1.36357
1.36451
1.36474
1.36426
1.36315
1.36143
1.35911
1.3562
1.35274
1.34873
1.34421
1.3392
1.33373
1.32785
1.32158
1.31496
1.30804
1.30085
1.29344
1.28586
1.27814
1.27032
1.26244
1.25454
1.24664
1.23877
1.23094
1.22316
1.21542
1.2077
1.19997
1.19216
1.1842
1.17599
1.16741
1.1583
1.1485
1.13781
1.12602
1.11291
1.09828
1.08193
1.06367
1.04339
1.02102
0.996556
0.970101
0.941835
0.912039
0.881075
0.849379
0.817423
0.785699
0.754666
0.724769
0.696372
0.669828
0.645222
0.62258
0.601872
0.58303
0.565958
0.550543
0.536659
0.524169
0.512947
0.502877
0.493847
0.485749
0.478485
0.471967
0.46611
0.460834
0.45606
0.451717
0.447746
0.44411
0.44073
0.437538
0.434467
0.431453
0.428429
0.425328
0.42207
0.418565
0.414707
0.410371
0.405421
0.399688
0.392975
0.385143
0.376125
0.365855
0.354308
0.341506
0.327535
0.312558
0.296811
0.2806
0.264275
0.248205
0.23275
0.218227
0.204885
0.1929
0.182381
0.173354
0.154458
0.231752
0.280015
0.309265
0.331265
0.349755
0.366097
0.380906
0.394431
0.406919
0.418548
0.429464
0.439802
0.449696
0.459281
0.468692
0.478069
0.487547
0.49726
0.507334
0.517886
0.529027
0.540857
0.553472
0.566958
0.581392
0.596841
0.613357
0.630972
0.649698
0.669521
0.690404
0.712283
0.735078
0.758689
0.783003
0.807898
0.83325
0.85893
0.884812
0.910775
0.9367
0.962479
0.98801
1.0132
1.03796
1.06223
1.08592
1.10899
1.13137
1.15303
1.17394
1.19405
1.21335
1.23181
1.24942
1.26617
1.28205
1.29704
1.31115
1.32438
1.33672
1.34817
1.35874
1.36843
1.37724
1.38518
1.39224
1.39844
1.40379
1.40828
1.41193
1.41475
1.41675
1.41792
1.4183
1.41789
1.41672
1.41484
1.41228
1.40904
1.40513
1.40059
1.39544
1.38971
1.38343
1.37663
1.36936
1.36166
1.35358
1.34516
1.33645
1.32752
1.3184
1.30916
1.29984
1.2905
1.28118
1.27193
1.26278
1.25377
1.24492
1.23622
1.22768
1.21927
1.21093
1.20259
1.19415
1.18547
1.17639
1.16671
1.1562
1.14464
1.13175
1.11729
1.10103
1.08276
1.06232
1.03965
1.01476
0.987744
0.958833
0.928348
0.896705
0.864377
0.831905
0.799758
0.76847
0.738436
0.71008
0.683569
0.658996
0.636386
0.61571
0.596893
0.579848
0.564463
0.550593
0.538105
0.526877
0.516786
0.507709
0.49954
0.492178
0.485525
0.479489
0.473984
0.468931
0.46426
0.459932
0.455868
0.451995
0.44825
0.444567
0.440886
0.437141
0.433259
0.429157
0.424737
0.41988
0.414455
0.408297
0.40124
0.393158
0.383938
0.373491
0.361767
0.348763
0.334545
0.319251
0.303103
0.286397
0.269486
0.252753
0.23658
0.221313
0.207236
0.194553
0.183396
0.173805
0.160914
0.240866
0.290697
0.320552
0.343232
0.362608
0.380037
0.396018
0.410857
0.424727
0.437745
0.450006
0.461603
0.47263
0.483191
0.493402
0.503387
0.513282
0.523227
0.533367
0.543845
0.554803
0.566374
0.578681
0.591837
0.605939
0.621065
0.637273
0.654598
0.673053
0.692622
0.713269
0.734935
0.757542
0.780996
0.805193
0.830017
0.85535
0.881072
0.907063
0.933204
0.959383
0.985493
1.01143
1.03711
1.06243
1.08733
1.11173
1.13556
1.15878
1.18132
1.20316
1.22425
1.24455
1.26406
1.28273
1.30055
1.31751
1.33359
1.34878
1.36308
1.37647
1.38895
1.40052
1.41117
1.4209
1.42972
1.43762
1.4446
1.45066
1.45581
1.46005
1.46339
1.46582
1.46736
1.46802
1.4678
1.46671
1.46482
1.46214
1.45869
1.45447
1.44953
1.44386
1.43752
1.43052
1.42291
1.41473
1.40602
1.39684
1.38724
1.37727
1.36699
1.35647
1.34578
1.33496
1.3241
1.31325
1.30248
1.29185
1.28141
1.27121
1.26128
1.25166
1.24234
1.2333
1.22451
1.21588
1.20731
1.19865
1.18972
1.18029
1.17009
1.15886
1.14629
1.13207
1.11595
1.09768
1.07709
1.0541
1.02874
1.00115
0.971594
0.940469
0.908205
0.875437
0.842633
0.810311
0.778923
0.748972
0.720716
0.694326
0.669891
0.647433
0.626918
0.60827
0.591383
0.576125
0.562351
0.549958
0.538799
0.528741
0.519666
0.51146
0.504014
0.497223
0.490991
0.485228
0.479856
0.474832
0.470073
0.465508
0.461069
0.456695
0.452329
0.447909
0.44337
0.438636
0.433619
0.428207
0.42228
0.415695
0.40831
0.399978
0.390571
0.379983
0.368139
0.355012
0.34064
0.325138
0.308703
0.291617
0.274227
0.256922
0.240102
0.224139
0.209349
0.195968
0.184153
0.173966
0.165303
0.247642
0.29856
0.328835
0.352099
0.372308
0.390773
0.408002
0.424233
0.439579
0.454104
0.467852
0.480871
0.493216
0.504957
0.516181
0.526996
0.537527
0.547912
0.558304
0.568862
0.579748
0.591119
0.603128
0.615909
0.629582
0.644245
0.65997
0.676806
0.694772
0.713864
0.734053
0.755286
0.777494
0.800592
0.82448
0.849054
0.8742
0.899805
0.925753
0.951931
0.978229
1.00454
1.03076
1.05681
1.08258
1.10801
1.13301
1.15752
1.18147
1.20482
1.22751
1.24951
1.27077
1.29126
1.31094
1.32981
1.34782
1.36497
1.38124
1.3966
1.41106
1.42459
1.43718
1.44884
1.45954
1.46929
1.47808
1.48591
1.49277
1.49866
1.50359
1.50754
1.51053
1.51254
1.5136
1.51369
1.51284
1.51105
1.50839
1.50486
1.50047
1.49524
1.4892
1.48237
1.47478
1.46648
1.4575
1.44789
1.4377
1.42699
1.41583
1.40427
1.39239
1.38025
1.36794
1.35552
1.34309
1.33071
1.31847
1.30644
1.29471
1.28333
1.27236
1.26183
1.25178
1.24219
1.23303
1.22422
1.21564
1.20713
1.19847
1.18941
1.17965
1.16884
1.15665
1.14272
1.12674
1.10844
1.08765
1.06428
1.03841
1.01021
0.980091
0.948476
0.915877
0.882813
0.849825
0.817416
0.786135
0.756347
0.728305
0.702169
0.678016
0.655856
0.635641
0.617283
0.600661
0.58564
0.572092
0.55987
0.54883
0.538851
0.529811
0.521579
0.514041
0.507091
0.500629
0.494563
0.488843
0.483387
0.478122
0.472979
0.467899
0.462827
0.457709
0.452484
0.447085
0.44144
0.43544
0.429001
0.421987
0.414258
0.405669
0.396084
0.385382
0.373467
0.360289
0.345856
0.330251
0.313648
0.296302
0.27855
0.260777
0.243395
0.226798
0.211332
0.197264
0.184782
0.173974
0.167369
0.251738
0.303397
0.334061
0.357897
0.378931
0.398461
0.416971
0.434636
0.451515
0.46762
0.482949
0.497504
0.5113
0.524371
0.536776
0.5486
0.559949
0.570957
0.581773
0.592561
0.603497
0.614755
0.626508
0.638913
0.652114
0.66623
0.681355
0.697556
0.71487
0.733307
0.752852
0.773465
0.795088
0.817646
0.841049
0.8652
0.889994
0.915322
0.941074
0.967141
0.993415
1.01979
1.04617
1.07245
1.09856
1.12439
1.14989
1.17496
1.19956
1.22362
1.24708
1.26991
1.29204
1.31345
1.3341
1.35396
1.373
1.39118
1.4085
1.42492
1.44043
1.45501
1.46865
1.48132
1.49303
1.50375
1.51348
1.52221
1.52992
1.53663
1.54231
1.54696
1.55058
1.55317
1.55472
1.55524
1.55473
1.55318
1.55066
1.54718
1.54274
1.53736
1.53106
1.52388
1.51583
1.50695
1.49729
1.4869
1.47582
1.46412
1.45186
1.4391
1.42593
1.41242
1.39864
1.38469
1.37066
1.35664
1.34273
1.32902
1.31561
1.30261
1.29008
1.27811
1.26676
1.25605
1.24601
1.23659
1.22772
1.21926
1.21103
1.20278
1.19421
1.18497
1.17466
1.16288
1.14922
1.13334
1.11494
1.09386
1.07005
1.04372
1.01511
0.984577
0.952601
0.919709
0.886463
0.853418
0.821117
0.790065
0.76059
0.732925
0.707211
0.683506
0.661799
0.642025
0.624082
0.607842
0.593167
0.57991
0.567924
0.55707
0.54721
0.538208
0.529935
0.522281
0.515134
0.50839
0.501979
0.495832
0.489867
0.484016
0.478222
0.472432
0.466597
0.460665
0.454574
0.448276
0.441683
0.43471
0.427241
0.419147
0.410289
0.400527
0.38973
0.377785
0.364618
0.350206
0.334603
0.317946
0.300465
0.282473
0.264348
0.246503
0.229348
0.213256
0.198528
0.185382
0.173937
0.167008
0.252281
0.304788
0.33595
0.360507
0.382498
0.403213
0.423095
0.442274
0.460762
0.478527
0.495523
0.511712
0.527071
0.541601
0.555331
0.568321
0.580659
0.592461
0.60387
0.615047
0.626172
0.637429
0.649004
0.661076
0.673808
0.687343
0.701799
0.717264
0.7338
0.751436
0.770176
0.789999
0.81086
0.832698
0.855437
0.878988
0.903256
0.928138
0.953531
0.979329
1.00543
1.03173
1.05812
1.08452
1.11083
1.13696
1.16283
1.18838
1.21352
1.23821
1.26237
1.28595
1.3089
1.33119
1.35275
1.37357
1.3936
1.41281
1.43117
1.44865
1.46523
1.48087
1.49557
1.5093
1.52204
1.53377
1.54449
1.55417
1.5628
1.57037
1.57687
1.5823
1.58663
1.58987
1.592
1.59303
1.59295
1.59175
1.58947
1.58612
1.58173
1.5763
1.56985
1.56241
1.554
1.54465
1.53442
1.52335
1.51148
1.49889
1.48562
1.47176
1.45737
1.44254
1.42736
1.41191
1.3963
1.38063
1.36501
1.34955
1.33437
1.31959
1.30533
1.29169
1.27878
1.26666
1.2554
1.245
1.23545
1.22665
1.21846
1.21066
1.20296
1.195
1.18637
1.17661
1.16525
1.15184
1.13599
1.11747
1.09616
1.07209
1.04541
1.01641
0.985521
0.953256
0.920185
0.886891
0.853939
0.821924
0.791262
0.762264
0.73514
0.710006