/*--------------------------------*- C++ -*----------------------------------*\
  =========                 |
  \\      /  F ield         | OpenFOAM: The Open Source CFD Toolbox
   \\    /   O peration     | Website:  https://openfoam.org
    \\  /    A nd           | Version:  9
     \\/     M anipulation  |
\*---------------------------------------------------------------------------*/
FoamFile
{
    format      ascii;
    class       volScalarField;
    location    "0.18";
    object      nut;
}
// * * * * * * * * * * * * * * * * * * * * * * * * * * * * * * * * * * * * * //

dimensions      [0 2 -1 0 0 0 0];

internalField   nonuniform List<scalar> 
12225
(
3.05396e-05
1.84206e-05
1.19844e-05
8.61334e-06
6.8019e-06
5.7574e-06
5.08654e-06
4.60537e-06
4.23112e-06
3.92556e-06
3.66913e-06
3.45077e-06
3.28034e-06
3.15949e-06
3.0951e-06
3.13388e-06
3.41768e-06
4.46314e-06
0.000162877
0.000102858
8.32359e-05
7.43209e-05
6.95112e-05
6.63401e-05
6.37663e-05
6.14453e-05
5.93114e-05
5.73665e-05
5.5614e-05
5.40611e-05
5.27744e-05
5.16587e-05
5.08863e-05
5.08062e-05
5.30154e-05
5.81843e-05
0.000338107
0.000221466
0.000180464
0.000160093
0.000148137
0.000140158
0.000134087
0.000128992
0.000124499
0.000120469
0.000116842
0.000113602
0.000110736
0.000108309
0.000106601
0.000106258
0.000109251
0.000117299
0.000502593
0.000350752
0.000287549
0.00025375
0.000232978
0.000218901
0.000208439
0.000200032
0.000192906
0.00018668
0.000181161
0.000176259
0.000171875
0.000168161
0.000165425
0.000164371
0.00016649
0.000172246
0.000628214
0.000472766
0.000394461
0.000348912
0.000319561
0.000299166
0.000283989
0.000271987
0.000262033
0.000253502
0.000246044
0.000239466
0.000233593
0.00022857
0.00022467
0.0002225
0.000223086
0.000226476
0.000714042
0.000577046
0.000493831
0.000440665
0.000404495
0.000378522
0.0003589
0.000343368
0.00033058
0.000319728
0.000310322
0.000302069
0.000294728
0.000288382
0.000283235
0.000279747
0.000278585
0.000279687
0.000768952
0.00065966
0.000580704
0.000525027
0.000484789
0.000454741
0.000431499
0.000412888
0.000397516
0.000384488
0.000373228
0.000363367
0.000354613
0.000346967
0.000340551
0.000335678
0.000332754
0.000331706
0.000802662
0.000721238
0.000652576
0.000599127
0.000557918
0.000525761
0.000500141
0.000479242
0.000461794
0.000446927
0.000434042
0.000422739
0.000412713
0.000403837
0.000396203
0.000389987
0.000385419
0.00038245
0.000822807
0.000764887
0.000709109
0.000661364
0.000622021
0.000589827
0.000563295
0.000541133
0.000522332
0.000506138
0.000492002
0.000479534
0.00046845
0.000458512
0.000449795
0.000442375
0.000436375
0.000431784
0.000834636
0.000794558
0.000751561
0.000711397
0.00067605
0.000645665
0.000619683
0.00059738
0.000578075
0.000561199
0.000546304
0.00053305
0.000521183
0.000510478
0.000500896
0.000492499
0.000485352
0.000479485
0.000841504
0.00081403
0.000782109
0.000749938
0.000719807
0.000692598
0.000668421
0.000647039
0.0006281
0.000611246
0.000596159
0.000582579
0.0005703
0.000559163
0.000549045
0.000539967
0.000532016
0.000525282
0.000845137
0.000825404
0.000801475
0.000776017
0.000750959
0.000727358
0.000705651
0.000685909
0.000668024
0.000651815
0.00063709
0.000623668
0.000611402
0.000600176
0.00058991
0.000580594
0.000572275
0.000565008
0.000847363
0.000832902
0.000815112
0.00079543
0.000775214
0.000755415
0.000736579
0.000718955
0.000702607
0.000687499
0.000673548
0.000660656
0.000648734
0.000637709
0.000627534
0.000618204
0.00060977
0.000602279
0.000848821
0.00083814
0.000825268
0.000810744
0.000795312
0.000779638
0.000764203
0.000749312
0.000735128
0.000721716
0.000709089
0.000697225
0.000686093
0.000675667
0.000665933
0.000656908
0.000648658
0.000641235
0.000849693
0.000841451
0.000832093
0.000821658
0.000810411
0.000798687
0.000786797
0.000774983
0.000763418
0.000752213
0.000741432
0.000731107
0.000721257
0.000711894
0.000703038
0.00069473
0.000687051
0.000680049
0.000850166
0.00084332
0.000836167
0.000828558
0.000820486
0.000812035
0.000803327
0.000794493
0.000785645
0.000776877
0.00076826
0.000759848
0.000751682
0.000743799
0.000736243
0.000729073
0.000722378
0.000716195
0.000850393
0.000844241
0.000838274
0.000832319
0.000826272
0.000820086
0.00081376
0.000807319
0.000800803
0.000794258
0.000787731
0.000781264
0.0007749
0.000768681
0.000762655
0.000756889
0.000751467
0.000746406
0.000850479
0.000844593
0.000839112
0.000833889
0.000828808
0.000823787
0.000818775
0.000813748
0.000808704
0.000803654
0.000798617
0.000793619
0.000788691
0.000783868
0.000779191
0.000774719
0.000770523
0.000766592
0.000850463
0.000844524
0.000838965
0.000833649
0.000828476
0.000823384
0.000818345
0.000813353
0.000808419
0.000803561
0.000798798
0.000794156
0.000789664
0.000785349
0.000781247
0.000777401
0.000773862
0.000770597
0.000850262
0.000843703
0.000837103
0.000830344
0.000823413
0.00081637
0.000809306
0.000802325
0.000795518
0.000788963
0.000782725
0.000776832
0.000771303
0.000766159
0.000761422
0.000757113
0.000753261
0.000749817
0.000849697
0.000841487
0.00083233
0.000822336
0.000811806
0.000801087
0.00079049
0.000780253
0.000770541
0.000761458
0.00075306
0.000745375
0.000738402
0.000732085
0.000726412
0.000721372
0.000716962
0.00071312
0.000848161
0.000835835
0.000821025
0.000804728
0.000787982
0.00077159
0.000756069
0.000741698
0.000728595
0.000716774
0.000706194
0.000696787
0.000688473
0.000681193
0.000674809
0.000669247
0.000664465
0.000660387
0.000844211
0.000822695
0.00079723
0.000770867
0.000745599
0.00072244
0.000701764
0.000683578
0.000667707
0.000653912
0.00064195
0.000631598
0.00062266
0.000614972
0.000608419
0.000602832
0.000598098
0.000594132
0.000834522
0.000794813
0.000752637
0.000713558
0.000679478
0.000650559
0.000626292
0.00060599
0.000588996
0.000574731
0.000562704
0.000552531
0.000543912
0.000536612
0.000530451
0.000525312
0.000521044
0.000517518
0.000811901
0.000741286
0.000678578
0.000628014
0.000588224
0.000556965
0.00053223
0.000512444
0.000496439
0.000483367
0.000472598
0.000463643
0.00045615
0.000449861
0.000444584
0.000440181
0.000436579
0.000433671
0.000762357
0.000649786
0.000570404
0.000515217
0.000475854
0.000447019
0.000425339
0.000408625
0.000395446
0.000384864
0.000376246
0.000369143
0.000363217
0.000358237
0.000354041
0.000350511
0.000347572
0.00034524
0.000663366
0.00051369
0.000432508
0.00038335
0.000351115
0.000328861
0.000312816
0.000300767
0.00029139
0.000283878
0.00027773
0.000272627
0.000268318
0.000264641
0.000261487
0.000258777
0.000256448
0.000254506
0.000492061
0.000343128
0.000280361
0.000246107
0.000225056
0.000211246
0.000201616
0.000194464
0.000188853
0.000184267
0.000180414
0.000177124
0.000174278
0.00017178
0.000169578
0.000167637
0.000165903
0.000164358
0.000262093
0.000171158
0.000137342
0.000119613
0.000109214
0.000102722
9.83102e-05
9.50077e-05
9.23422e-05
9.00919e-05
8.81471e-05
8.6448e-05
8.49555e-05
8.36198e-05
8.24342e-05
8.139e-05
8.04366e-05
7.94851e-05
5.97113e-05
4.26458e-05
3.14305e-05
2.40281e-05
1.91216e-05
1.58456e-05
1.36204e-05
1.20633e-05
1.09325e-05
1.00804e-05
9.41731e-06
8.88762e-06
8.45595e-06
8.09723e-06
7.7979e-06
7.54646e-06
7.3329e-06
7.14674e-06
4.91163e-06
5.68604e-05
7.64781e-05
9.19257e-05
0.000104523
0.000114953
0.000123667
0.00013099
0.000137179
0.000142441
0.000146959
0.000150903
0.000154447
0.000157749
0.000161163
0.000164825
0.000168733
0.000172902
0.000177345
0.000182016
0.000186739
0.000191299
0.000195761
0.000200957
0.000204217
0.000204228
0.000204162
0.000206904
0.000204916
0.000208744
0.000225647
0.0002296
0.000217679
0.000206585
3.88916e-05
3.94153e-05
4.12009e-05
4.49381e-05
4.66241e-05
4.81662e-05
4.96954e-05
5.11835e-05
5.26133e-05
5.39739e-05
5.52593e-05
5.64671e-05
5.75974e-05
5.86516e-05
5.96323e-05
6.05429e-05
6.1387e-05
6.21682e-05
6.28905e-05
6.35574e-05
6.41725e-05
6.4739e-05
6.526e-05
6.57383e-05
6.61764e-05
6.65766e-05
6.69409e-05
6.72713e-05
6.75696e-05
6.78373e-05
6.80763e-05
6.8288e-05
6.84747e-05
6.86386e-05
6.87835e-05
6.89147e-05
6.90415e-05
6.918e-05
6.93514e-05
6.94988e-05
6.96188e-05
6.97035e-05
6.97465e-05
6.97686e-05
6.97719e-05
6.97574e-05
6.9726e-05
6.96784e-05
6.96153e-05
6.95377e-05
6.94462e-05
6.93416e-05
6.92245e-05
6.90952e-05
6.89535e-05
6.87987e-05
6.86297e-05
6.84449e-05
6.82427e-05
6.80214e-05
6.77791e-05
6.7514e-05
6.72241e-05
6.69072e-05
6.65612e-05
6.61836e-05
6.57716e-05
6.53225e-05
6.48331e-05
6.43004e-05
6.3721e-05
6.30916e-05
6.24085e-05
6.16686e-05
6.08683e-05
6.00048e-05
5.90756e-05
5.80788e-05
5.70134e-05
5.58793e-05
5.46774e-05
5.34091e-05
5.20723e-05
5.06526e-05
4.91334e-05
4.74713e-05
4.55642e-05
4.48615e-05
0.000235754
4.57344e-05
0.000218192
0.000211647
0.000210405
0.00021982
0.000214353
0.000209044
0.000205358
0.000201432
0.000195309
0.000205582
0.000200837
0.000193657
0.000186837
0.000179139
0.00018831
0.000199191
0.000196536
0.000192685
0.000192186
0.00019288
0.000192082
0.000191806
0.000192167
0.000195097
0.000198028
0.000197664
0.000196416
0.000196027
0.000195475
0.000194265
0.000196974
0.000197221
0.000189983
0.00017416
3.59156e-05
0.000192848
0.00019222
0.000191161
3.39962e-05
0.000192234
0.000189603
0.000183015
0.000175148
0.000167406
0.000159504
0.000151513
0.000143554
0.000135746
0.000128198
0.000120992
0.000114181
0.00010778
0.000101764
9.60637e-05
9.04929e-05
8.49396e-05
7.27657e-06
5.61536e-05
0.000106622
0.000149393
0.00018523
0.000215096
0.000239788
0.000259992
0.000276323
0.000289339
0.000299549
0.000307414
0.000313345
0.000317678
0.000320749
0.000322772
0.000324116
0.000325004
0.000325505
0.000325497
0.000324624
0.000322324
0.000318013
0.000311745
0.000304823
0.000294935
0.000279769
0.000278875
0.000269523
0.000271728
0.000278862
0.000275226
0.000265219
0.000255051
0.00023656
0.00023846
0.000245411
0.000255042
0.000262701
0.00027001
0.00027822
0.000287304
0.000297072
0.000307333
0.00031791
0.000328647
0.000339403
0.000350057
0.000360509
0.00037068
0.000380512
0.000389965
0.000399016
0.000407657
0.000415888
0.000423721
0.000431171
0.000438257
0.000445004
0.000451432
0.000457566
0.000463426
0.000469033
0.000474403
0.000479549
0.00048448
0.000489195
0.000493689
0.000497942
0.00050192
0.000505563
0.000508785
0.000511552
0.00051423
0.000516806
0.000519277
0.00052166
0.000524005
0.000526325
0.00052863
0.000530925
0.000533219
0.00053552
0.000537833
0.000540165
0.000542523
0.000544911
0.000547331
0.000549783
0.000552262
0.000554762
0.000557271
0.000559773
0.000562252
0.000564687
0.000567053
0.000569322
0.000571464
0.000573443
0.000575219
0.000576748
0.000577983
0.000578872
0.000579357
0.000579379
0.000578875
0.000577781
0.000576031
0.000573557
0.000570295
0.000566183
0.000561162
0.000555178
0.000548178
0.000540104
0.000530872
0.000520334
0.000508209
0.000494001
0.000477106
0.000458516
0.00044902
0.000504025
0.000388344
0.000461281
0.000452263
0.000450333
0.000469831
0.000457296
0.000444047
0.000434638
0.000423275
0.00040729
0.0004627
0.000450062
0.000417449
0.000376664
0.000343338
0.000374827
0.000450341
0.000452164
0.000439955
0.000431926
0.000437807
0.000442522
0.000438695
0.000436284
0.000439088
0.000452348
0.000462353
0.000460351
0.000455526
0.000451548
0.000443248
0.000434117
0.000453783
0.00041878
0.000332663
0.00025927
0.000436276
0.000422459
0.000422898
0.00024736
0.000446435
0.000463624
0.000454722
0.000441808
0.000427679
0.000412553
0.000396666
0.000380317
0.000363828
0.000347514
0.00033165
0.000316442
0.000302
0.000288313
0.00027523
0.000262255
0.00024795
1.11597e-05
7.12613e-05
0.000136493
0.000194644
0.000245167
0.000288539
0.00032532
0.000356065
0.00038132
0.000401623
0.000417498
0.00042945
0.000437965
0.000443497
0.000446286
0.000446821
0.000445672
0.000443331
0.000440171
0.000436417
0.000432154
0.000427501
0.000422557
0.000417624
0.000413246
0.000409206
0.000405669
0.000405021
0.000405136
0.000408737
0.000413954
0.000417755
0.000421062
0.000425631
0.000431958
0.000444749
0.000461743
0.000481591
0.000503034
0.000525897
0.000550187
0.000575656
0.000601941
0.000628669
0.00065549
0.000682101
0.000708247
0.000733727
0.000758388
0.000782125
0.000804872
0.000826595
0.000847287
0.000866962
0.000885645
0.000903374
0.000920191
0.000936141
0.00095127
0.000965621
0.000979235
0.000992149
0.0010044
0.001016
0.00102699
0.00103736
0.00104713
0.0010563
0.00106483
0.00107273
0.00107993
0.00108641
0.0010921
0.00109769
0.00110307
0.00110823
0.00111319
0.00111799
0.00112265
0.00112718
0.0011316
0.00113594
0.0011402
0.0011444
0.00114857
0.00115271
0.00115685
0.00116098
0.00116511
0.00116925
0.00117339
0.0011775
0.00118158
0.00118559
0.00118951
0.00119329
0.00119689
0.00120025
0.00120331
0.00120599
0.00120822
0.0012099
0.00121094
0.00121122
0.00121064
0.00120908
0.0012064
0.00120249
0.0011972
0.00119041
0.001182
0.00117184
0.00115982
0.00114582
0.00112971
0.00111135
0.00109054
0.001067
0.00104048
0.00101114
0.000981144
0.000957593
0.000948137
0.000885182
0.000884761
0.000861398
0.000843158
0.000832695
0.000810756
0.000789643
0.000773044
0.000758916
0.000749757
0.00076664
0.000750154
0.000720258
0.000689259
0.00067152
0.000695662
0.000736008
0.000735501
0.000723547
0.000716527
0.000719689
0.000722166
0.000719526
0.000719058
0.000724459
0.000736845
0.000745334
0.000743884
0.000739861
0.00073697
0.000732717
0.000731046
0.000740962
0.000714904
0.000662849
0.000632588
0.000727992
0.000721692
0.000717368
0.000616963
0.000732961
0.000744767
0.000732215
0.000714004
0.000693389
0.000670957
0.000647118
0.000622327
0.000597083
0.000571891
0.00054721
0.000523407
0.000500716
0.000479187
0.000458655
0.000438557
0.000417598
1.55734e-05
8.91428e-05
0.000169183
0.000240458
0.000302228
0.000355145
0.000399947
0.000437325
0.000467925
0.000492353
0.000511193
0.000525013
0.000534377
0.000539878
0.000541853
0.000541064
0.000538275
0.000534256
0.000529678
0.000525065
0.00052076
0.0005173
0.000514957
0.000513897
0.000514242
0.000515941
0.000519122
0.000524277
0.00053144
0.000541167
0.000553188
0.000567034
0.000583074
0.000602048
0.000624582
0.000651506
0.000682277
0.000716163
0.000752408
0.000790441
0.000829788
0.000869976
0.000910549
0.00095108
0.000991199
0.00103059
0.00106902
0.00110628
0.00114225
0.00117683
0.00120998
0.00124167
0.00127191
0.00130072
0.00132814
0.00135421
0.00137898
0.00140249
0.00142481
0.00144597
0.00146602
0.001485
0.00150295
0.00151989
0.00153585
0.00155085
0.00156491
0.00157804
0.00159025
0.00160154
0.00161192
0.00162139
0.00162997
0.00163791
0.00164556
0.00165282
0.00165972
0.00166626
0.00167246
0.00167836
0.00168397
0.00168932
0.00169443
0.00169933
0.00170404
0.00170859
0.00171299
0.00171727
0.00172143
0.00172548
0.00172943
0.00173325
0.00173694
0.00174047
0.0017438
0.0017469
0.0017497
0.00175215
0.00175417
0.00175568
0.00175656
0.00175672
0.00175603
0.00175435
0.00175154
0.00174745
0.00174192
0.00173478
0.00172587
0.00171503
0.0017021
0.00168692
0.00166937
0.0016493
0.00162658
0.00160111
0.00157274
0.00154137
0.00150702
0.00147017
0.00143238
0.00139648
0.00136242
0.00131481
0.00128348
0.00124782
0.0012157
0.0011876
0.00115754
0.00112972
0.00110639
0.00108721
0.00107325
0.00106739
0.00104834
0.00102359
0.00100155
0.000990881
0.00100058
0.00101503
0.00101089
0.00100041
0.000993839
0.000993801
0.000994196
0.000992639
0.000993362
0.000998509
0.00100736
0.00101308
0.00101232
0.00100993
0.00100883
0.00100812
0.00100954
0.00101402
0.00099983
0.000975667
0.000968635
0.00100402
0.000999281
0.000994345
0.00095223
0.00099374
0.000992417
0.000974727
0.000951318
0.000924826
0.000895948
0.000865204
0.000833158
0.000800434
0.000767668
0.000735461
0.000704314
0.000674573
0.000646377
0.00061962
0.000593839
0.000568149
2.02608e-05
0.000108058
0.000202194
0.000285347
0.000356869
0.000417636
0.000468617
0.000510722
0.000544788
0.000571591
0.000591868
0.000606347
0.000615784
0.000620692
0.000621935
0.000620428
0.000617077
0.00061285
0.00060868
0.000605241
0.000603053
0.000602502
0.000603815
0.000607114
0.000612461
0.000619903
0.000629583
0.000641793
0.000656821
0.000675007
0.000696501
0.00072137
0.000749813
0.000782072
0.000818277
0.000858376
0.000901928
0.000948315
0.00099686
0.00104693
0.00109793
0.00114935
0.00120073
0.00125166
0.0013018
0.00135087
0.00139864
0.00144496
0.0014897
0.00153278
0.00157416
0.00161381
0.00165174
0.00168797
0.00172253
0.00175546
0.0017868
0.00181659
0.00184488
0.00187172
0.00189715
0.0019212
0.00194391
0.00196532
0.00198546
0.00200435
0.00202203
0.00203851
0.00205382
0.00206799
0.00208104
0.002093
0.0021039
0.00211376
0.00212303
0.00213172
0.00213982
0.00214735
0.00215432
0.00216076
0.00216669
0.00217214
0.00217714
0.00218171
0.0021859
0.00218972
0.0021932
0.00219637
0.00219925
0.00220185
0.00220417
0.00220623
0.002208
0.00220948
0.00221064
0.00221143
0.00221182
0.00221174
0.00221112
0.00220988
0.00220791
0.0022051
0.00220132
0.00219644
0.00219031
0.00218276
0.00217362
0.00216273
0.00214992
0.002135
0.00211782
0.00209822
0.00207608
0.00205127
0.00202369
0.00199329
0.00196001
0.00192389
0.00188509
0.00184408
0.00180177
0.00175931
0.00171649
0.0016703
0.00162811
0.00158586
0.00154549
0.00150813
0.00147215
0.00143908
0.00141014
0.00138538
0.00136471
0.00134742
0.00132619
0.00130399
0.00128547
0.00127471
0.00127356
0.00127409
0.00126703
0.00125735
0.0012506
0.00124807
0.00124669
0.0012452
0.00124567
0.00124903
0.00125421
0.00125729
0.00125663
0.0012551
0.00125466
0.00125496
0.00125629
0.00125762
0.00124992
0.00123841
0.00123548
0.00124398
0.00123744
0.00123018
0.00120909
0.00121386
0.00120125
0.00117816
0.00114993
0.00111832
0.00108399
0.00104751
0.00100951
0.000970699
0.000931798
0.000893507
0.000856429
0.000821008
0.000787474
0.000755805
0.000725686
0.000696572
2.49097e-05
0.000125836
0.000232975
0.000327073
0.000407555
0.00047545
0.000531921
0.000578091
0.000615027
0.000643728
0.000665142
0.000680204
0.000689723
0.00069453
0.000695728
0.000694419
0.000691691
0.00068858
0.000686009
0.000684722
0.000685269
0.000688028
0.000693235
0.000701038
0.000711556
0.000724925
0.000741347
0.000761096
0.000784466
0.000811722
0.000843032
0.000878461
0.000918012
0.000961602
0.00100902
0.00105992
0.00111379
0.00117003
0.00122802
0.00128713
0.00134683
0.00140662
0.00146607
0.0015248
0.00158252
0.00163897
0.00169395
0.00174731
0.00179893
0.00184873
0.00189667
0.00194272
0.00198687
0.00202914
0.00206953
0.00210809
0.00214483
0.00217981
0.00221306
0.00224461
0.00227452
0.0023028
0.00232951
0.00235466
0.00237831
0.00240048
0.00242119
0.00244049
0.0024584
0.00247496
0.00249019
0.00250414
0.00251683
0.00252831
0.00253862
0.00254817
0.00255693
0.00256487
0.00257202
0.0025784
0.00258403
0.00258894
0.00259316
0.00259672
0.00259965
0.00260199
0.00260377
0.00260501
0.00260574
0.00260599
0.00260577
0.00260509
0.00260396
0.00260238
0.00260032
0.00259776
0.00259468
0.00259102
0.00258673
0.00258174
0.00257596
0.00256929
0.00256162
0.00255282
0.00254276
0.00253129
0.00251825
0.00250348
0.00248681
0.00246808
0.00244715
0.00242386
0.00239812
0.0023698
0.00233887
0.00230528
0.00226908
0.00223034
0.00218929
0.00214631
0.00210197
0.00205689
0.00201118
0.00196453
0.00191892
0.00187387
0.00182997
0.00178836
0.00174892
0.00171243
0.00167954
0.00165034
0.00162453
0.00160124
0.001578
0.0015561
0.00153776
0.00152464
0.00151658
0.00150977
0.00150049
0.00149076
0.00148333
0.00147883
0.00147574
0.00147339
0.00147257
0.00147355
0.00147545
0.00147608
0.0014747
0.00147285
0.00147169
0.00147101
0.0014705
0.00146904
0.001463
0.00145493
0.0014497
0.00144625
0.00143644
0.00142521
0.00140758
0.00139544
0.00137458
0.0013465
0.0013139
0.00127782
0.00123887
0.00119762
0.00115476
0.00111101
0.00106719
0.00102404
0.000982266
0.000942376
0.000904683
0.000869251
0.000835892
0.000804276
2.93968e-05
0.000141718
0.000260678
0.000364852
0.000453745
0.000528448
0.000590315
0.000640511
0.00068039
0.000711211
0.000734149
0.00075036
0.000760697
0.000766352
0.000768521
0.000768397
0.000767137
0.00076582
0.00076539
0.000766623
0.000770109
0.000776272
0.00078541
0.000797742
0.000813458
0.000832754
0.00085585
0.000882978
0.000914347
0.000950104
0.000990291
0.00103484
0.00108357
0.0011362
0.00119235
0.00125156
0.00131327
0.00137693
0.00144195
0.00150778
0.00157393
0.00163995
0.00170545
0.0017701
0.0018336
0.00189574
0.00195633
0.00201521
0.00207227
0.00212743
0.00218064
0.00223185
0.00228105
0.00232824
0.00237341
0.0024166
0.00245782
0.0024971
0.00253447
0.00256997
0.00260361
0.00263545
0.00266551
0.00269383
0.00272043
0.00274535
0.00276863
0.00279029
0.00281037
0.00282889
0.0028459
0.00286142
0.00287548
0.00288811
0.00289931
0.00290937
0.00291839
0.00292638
0.00293334
0.00293928
0.00294423
0.00294822
0.00295128
0.00295343
0.00295471
0.00295515
0.00295479
0.00295366
0.00295179
0.00294921
0.00294594
0.00294202
0.00293744
0.00293224
0.00292639
0.00291992
0.00291278
0.00290498
0.00289645
0.00288717
0.00287708
0.00286609
0.00285412
0.00284108
0.00282685
0.00281131
0.00279433
0.00277577
0.00275549
0.00273334
0.0027092
0.00268294
0.00265446
0.00262367
0.00259055
0.00255507
0.00251731
0.00247737
0.00243548
0.00239194
0.00234717
0.00230159
0.00225548
0.00220904
0.00216301
0.00211755
0.00207303
0.00203003
0.00198922
0.00195105
0.00191594
0.00188398
0.00185497
0.00182842
0.00180352
0.00178085
0.00176141
0.00174572
0.00173332
0.00172236
0.00171126
0.00170084
0.00169236
0.00168607
0.00168122
0.00167736
0.00167469
0.00167312
0.00167206
0.00167029
0.00166742
0.00166424
0.00166132
0.00165845
0.00165518
0.00165068
0.00164342
0.00163446
0.00162546
0.00161538
0.00160166
0.00158586
0.00156582
0.00154465
0.00151763
0.00148514
0.00144856
0.00140852
0.00136557
0.00132028
0.00127334
0.00122554
0.0011777
0.00113066
0.00108515
0.00104176
0.00100088
0.000962625
0.000926904
0.000893491
3.36237e-05
0.00015495
0.000284651
0.000398372
0.000495271
0.000576499
0.000643578
0.000698054
0.000741429
0.000775134
0.00080054
0.000818683
0.000830859
0.000838345
0.000842402
0.00084427
0.000845138
0.000846112
0.000848167
0.000852123
0.000858632
0.000868194
0.000881186
0.000897899
0.000918578
0.000943434
0.000972659
0.00100641
0.00104477
0.00108775
0.00113527
0.0011871
0.00124295
0.00130244
0.00136511
0.00143045
0.00149794
0.00156703
0.00163721
0.00170799
0.00177891
0.00184958
0.00191963
0.00198875
0.0020567
0.00212325
0.00218822
0.00225145
0.00231284
0.0023723
0.00242975
0.00248515
0.00253847
0.00258969
0.00263881
0.00268584
0.00273078
0.00277366
0.00281448
0.00285329
0.0028901
0.00292495
0.00295785
0.00298885
0.00301797
0.00304524
0.00307069
0.00309435
0.00311625
0.00313642
0.00315488
0.00317168
0.00318682
0.00320034
0.00321225
0.0032226
0.00323169
0.00323951
0.00324608
0.0032514
0.0032555
0.0032584
0.00326013
0.00326072
0.00326019
0.00325858
0.00325592
0.00325226
0.00324762
0.00324205
0.00323556
0.00322821
0.00322
0.00321097
0.00320114
0.00319052
0.00317911
0.00316693
0.00315395
0.00314017
0.00312556
0.00311008
0.00309367
0.00307628
0.00305784
0.00303826
0.00301743
0.00299527
0.00297165
0.00294647
0.0029196
0.00289095
0.00286042
0.00282794
0.00279347
0.00275702
0.00271864
0.00267844
0.00263661
0.0025934
0.00254915
0.0025042
0.00245886
0.00241343
0.0023683
0.00232375
0.00228004
0.00223746
0.00219679
0.00215837
0.00212251
0.00208932
0.00205873
0.00203053
0.00200449
0.00198088
0.00196012
0.00194233
0.00192709
0.00191348
0.00190079
0.00188928
0.00187948
0.00187144
0.00186474
0.00185904
0.00185423
0.0018501
0.00184626
0.00184202
0.00183712
0.00183188
0.00182653
0.00182083
0.00181436
0.00180653
0.00179661
0.00178494
0.00177194
0.00175697
0.00173912
0.00171873
0.00169468
0.00166752
0.00163556
0.00159913
0.00155889
0.00151527
0.00146877
0.00141995
0.00136952
0.00131827
0.00126707
0.00121681
0.00116828
0.00112213
0.0010788
0.00103846
0.00100107
0.000966424
3.75485e-05
0.000166331
0.000305467
0.00042737
0.000531543
0.000619215
0.000691855
0.000751098
0.000798596
0.000835941
0.000864472
0.000885538
0.000900526
0.000910768
0.000917558
0.000922152
0.00092575
0.000929474
0.000934329
0.000941185
0.000950763
0.000963642
0.000980276
0.00100102
0.00102613
0.00105584
0.00109026
0.00112948
0.00117348
0.00122214
0.00127527
0.00133256
0.00139365
0.0014581
0.00152544
0.00159516
0.00166676
0.00173975
0.00181364
0.001888
0.00196241
0.0020365
0.00210995
0.00218248
0.00225383
0.00232379
0.00239218
0.00245886
0.00252369
0.0025866
0.00264748
0.0027063
0.002763
0.00281756
0.00286996
0.00292019
0.00296826
0.00301416
0.00305792
0.00309955
0.00313906
0.00317648
0.00321183
0.00324514
0.00327643
0.00330572
0.00333305
0.00335843
0.0033819
0.00340347
0.00342318
0.00344104
0.00345708
0.00347131
0.00348375
0.0034944
0.00350347
0.00351106
0.00351718
0.00352184
0.00352505
0.00352685
0.00352724
0.00352627
0.00352395
0.00352032
0.00351541
0.00350927
0.00350192
0.0034934
0.00348375
0.00347302
0.00346123
0.00344842
0.00343464
0.00341991
0.00340426
0.00338771
0.00337029
0.00335201
0.00333289
0.00331291
0.00329208
0.00327038
0.00324777
0.00322422
0.00319968
0.00317408
0.00314734
0.00311939
0.00309015
0.00305951
0.00302741
0.00299377
0.00295855
0.00292174
0.00288337
0.00284352
0.00280234
0.00276004
0.00271689
0.00267317
0.00262919
0.00258525
0.00254166
0.00249867
0.00245651
0.00241535
0.00237577
0.00233811
0.00230261
0.00226937
0.00223841
0.00220967
0.00218309
0.00215883
0.00213704
0.00211771
0.00210056
0.00208511
0.00207097
0.0020582
0.00204695
0.00203717
0.00202856
0.00202084
0.0020138
0.00200718
0.00200063
0.00199384
0.00198655
0.00197882
0.00197066
0.00196184
0.00195198
0.00194065
0.00192743
0.00191233
0.00189534
0.00187606
0.00185405
0.00182924
0.00180094
0.001769
0.00173286
0.00169282
0.00164917
0.00160226
0.00155254
0.00150056
0.00144702
0.00139275
0.00133864
0.00128563
0.00123457
0.00118617
0.00114092
0.00109904
0.0010605
0.00102508
4.10928e-05
0.000176378
0.000323313
0.000452114
0.00056296
0.000656846
0.00073513
0.000799465
0.000851598
0.000893138
0.000925562
0.000950389
0.000969041
0.000982864
0.000993151
0.00100115
0.00100805
0.00101497
0.00102294
0.00103287
0.00104553
0.00106158
0.00108153
0.00110578
0.00113462
0.00116825
0.00120676
0.00125016
0.00129835
0.00135114
0.00140828
0.0014694
0.0015341
0.00160194
0.00167245
0.00174515
0.00181955
0.00189521
0.00197168
0.00204855
0.00212545
0.00220202
0.00227798
0.00235304
0.00242696
0.00249955
0.00257061
0.00263999
0.00270758
0.00277325
0.00283693
0.00289855
0.00295804
0.00301538
0.00307052
0.00312345
0.00317417
0.00322266
0.00326893
0.00331299
0.00335484
0.0033945
0.00343199
0.00346732
0.00350052
0.0035316
0.00356058
0.00358749
0.00361234
0.00363516
0.00365597
0.00367478
0.00369161
0.00370647
0.00371939
0.00373036
0.00373942
0.0037468
0.00375251
0.00375655
0.00375895
0.00375972
0.00375889
0.00375647
0.0037525
0.003747
0.00374001
0.00373156
0.00372168
0.00371042
0.00369781
0.00368391
0.00366875
0.00365238
0.00363485
0.00361621
0.00359649
0.00357576
0.00355406
0.00353143
0.00350792
0.00348357
0.00345841
0.00343248
0.00340579
0.00337835
0.00335017
0.00332123
0.0032915
0.00326095
0.0032295
0.00319711
0.00316371
0.00312922
0.00309359
0.0030568
0.00301883
0.00297973
0.0029396
0.00289857
0.00285687
0.00281474
0.00277245
0.00273029
0.00268852
0.00264741
0.00260715
0.0025679
0.00252993
0.00249366
0.00245926
0.00242682
0.00239637
0.0023679
0.00234139
0.00231694
0.00229459
0.0022743
0.0022559
0.00223912
0.00222372
0.00220966
0.00219694
0.00218545
0.00217496
0.0021652
0.00215592
0.00214686
0.0021377
0.00212832
0.00211844
0.00210799
0.00209686
0.00208479
0.00207149
0.0020566
0.00203984
0.00202106
0.00200014
0.00197677
0.00195067
0.00192164
0.00188919
0.00185306
0.00181324
0.00176981
0.00172297
0.001673
0.00162031
0.00156544
0.00150909
0.00145209
0.00139537
0.00133991
0.00128663
0.0012363
0.00118948
0.00114642
0.0011071
0.00107125
4.41777e-05
0.000184956
0.000338013
0.00047264
0.000589438
0.000689171
0.000773041
0.000842663
0.000899772
0.000945979
0.000982957
0.00101225
0.00103527
0.00105337
0.00106781
0.00107981
0.00109053
0.00110107
0.00111244
0.0011256
0.00114134
0.00116037
0.00118326
0.00121044
0.00124223
0.00127882
0.0013203
0.00136662
0.00141767
0.0014732
0.00153293
0.00159649
0.00166346
0.00173341
0.00180589
0.00188043
0.00195659
0.00203395
0.00211208
0.00219062
0.00226919
0.0023475
0.00242523
0.00250213
0.00257797
0.00265254
0.00272565
0.00279716
0.00286692
0.00293482
0.00300077
0.00306468
0.00312649
0.00318615
0.00324361
0.00329884
0.00335183
0.00340255
0.003451
0.00349719
0.0035411
0.00358275
0.00362214
0.00365928
0.00369419
0.00372688
0.00375737
0.00378568
0.0038118
0.00383578
0.0038576
0.0038773
0.00389489
0.00391036
0.00392374
0.00393503
0.00394422
0.00395149
0.00395689
0.00396044
0.00396216
0.00396207
0.00396018
0.00395651
0.00395109
0.00394395
0.0039351
0.0039246
0.00391246
0.00389874
0.00388347
0.0038667
0.00384848
0.00382885
0.00380788
0.00378562
0.00376214
0.0037375
0.00371176
0.00368502
0.00365733
0.00362878
0.00359944
0.00356939
0.00353871
0.00350745
0.00347568
0.00344343
0.00341073
0.00337758
0.00334398
0.00330989
0.00327526
0.00324004
0.00320415
0.00316755
0.0031302
0.00309208
0.00305323
0.00301373
0.00297373
0.00293341
0.00289301
0.00285279
0.002813
0.00277388
0.00273565
0.00269845
0.0026624
0.00262789
0.00259506
0.00256397
0.00253464
0.00250705
0.00248117
0.00245703
0.00243464
0.00241394
0.00239483
0.00237714
0.00236072
0.0023455
0.0023314
0.0023183
0.002306
0.00229425
0.00228281
0.0022714
0.00225974
0.00224777
0.00223524
0.00222199
0.00220782
0.00219252
0.00217579
0.00215737
0.00213699
0.0021145
0.00208971
0.00206237
0.00203227
0.00199918
0.00196275
0.0019229
0.00187965
0.00183303
0.00178317
0.00173034
0.00167491
0.00161739
0.00155847
0.00149897
0.00143986
0.00138214
0.00132682
0.00127474
0.00122653
0.00118249
0.00114262
0.00110658
4.6726e-05
0.000191823
0.000349416
0.0004887
0.000610679
0.000715835
0.000805147
0.00088012
0.000942368
0.000993667
0.00103568
0.00106996
0.0010979
0.00112082
0.00113994
0.00115642
0.00117138
0.00118588
0.00120092
0.00121743
0.00123624
0.00125807
0.00128354
0.00131312
0.00134714
0.00138583
0.00142927
0.00147742
0.00153016
0.00158726
0.0016484
0.00171325
0.00178139
0.00185241
0.00192587
0.00200135
0.00207842
0.00215668
0.00223574
0.00231523
0.00239484
0.00247424
0.00255316
0.00263133
0.00270853
0.00278455
0.00285921
0.00293235
0.00300382
0.0030735
0.00314128
0.00320708
0.00327081
0.00333242