/*--------------------------------*- C++ -*----------------------------------*\
  =========                 |
  \\      /  F ield         | OpenFOAM: The Open Source CFD Toolbox
   \\    /   O peration     | Website:  https://openfoam.org
    \\  /    A nd           | Version:  9
     \\/     M anipulation  |
\*---------------------------------------------------------------------------*/
FoamFile
{
    format      ascii;
    class       volScalarField;
    location    "0.18";
    object      p;
}
// * * * * * * * * * * * * * * * * * * * * * * * * * * * * * * * * * * * * * //

dimensions      [0 2 -2 0 0 0 0];

internalField   nonuniform List<scalar> 
12225
(
12.372
12.0721
11.9876
11.9818
11.9819
11.9844
11.9905
11.9982
12.0055
12.0114
12.0147
12.0137
12.0058
11.9874
11.9524
11.8932
11.8084
11.6795
11.9788
11.9882
11.9812
11.9831
11.9835
11.9854
11.9909
11.998
12.0049
12.0104
12.0133
12.0117
12.0032
11.984
11.9481
11.8881
11.7953
11.6664
11.9276
11.9895
11.9847
11.9837
11.984
11.9857
11.9905
11.9968
12.0029
12.0077
12.0098
12.0075
11.9981
11.9782
11.9417
11.8829
11.7943
11.6651
11.9547
11.9928
11.9824
11.9803
11.9812
11.983
11.9871
11.9924
11.9975
12.0013
12.0022
11.9987
11.988
11.967
11.9302
11.8733
11.789
11.659
11.9576
11.9813
11.9737
11.9733
11.9749
11.9767
11.9802
11.9846
11.9884
11.9908
11.9902
11.9849
11.9726
11.9501
11.9129
11.8572
11.7759
11.6519
11.9446
11.9646
11.9622
11.9634
11.9655
11.9674
11.9702
11.9734
11.9759
11.9765
11.9741
11.9668
11.9526
11.9284
11.8905
11.8353
11.7564
11.6433
11.9301
11.9481
11.9492
11.9514
11.9538
11.9555
11.9576
11.9596
11.9604
11.9593
11.9548
11.9454
11.9291
11.9032
11.8645
11.8096
11.7336
11.6327
11.9167
11.9322
11.9352
11.938
11.9404
11.9418
11.9429
11.9435
11.9428
11.9397
11.9331
11.9217
11.9034
11.876
11.8366
11.7823
11.71
11.6206
11.9037
11.9167
11.9206
11.9236
11.9258
11.9266
11.9268
11.926
11.9235
11.9185
11.91
11.8965
11.8765
11.8479
11.8083
11.7551
11.6872
11.6077
11.8907
11.9018
11.906
11.9089
11.9105
11.9106
11.9095
11.9072
11.903
11.8961
11.8857
11.8704
11.8488
11.8193
11.7799
11.7284
11.6651
11.5935
11.8781
11.8876
11.8918
11.8942
11.895
11.8941
11.8918
11.8879
11.882
11.8733
11.8611
11.8443
11.8216
11.7916
11.7527
11.7035
11.6446
11.5792
11.865
11.874
11.8778
11.8795
11.8792
11.8771
11.8733
11.8678
11.8602
11.8499
11.8362
11.8181
11.7948
11.765
11.7275
11.6813
11.6271
11.5681
11.8528
11.8617
11.865
11.8657
11.8642
11.8608
11.8555
11.8485
11.8392
11.8274
11.8124
11.7934
11.7698
11.7406
11.705
11.6623
11.6133
11.5603
11.844
11.8523
11.855
11.8549
11.8524
11.8479
11.8415
11.8332
11.8228
11.81
11.7942
11.7749
11.7515
11.7235
11.6902
11.6512
11.6074
11.5598
11.8391
11.8464
11.8484
11.8477
11.8445
11.8393
11.8322
11.8233
11.8123
11.7991
11.7832
11.7643
11.742
11.7157
11.6851
11.65
11.611
11.5683
11.8392
11.845
11.8463
11.8451
11.8416
11.8362
11.829
11.8201
11.8095
11.7968
11.782
11.7646
11.7444
11.7211
11.6943
11.6638
11.63
11.5926
11.8452
11.8492
11.8497
11.8481
11.8446
11.8394
11.8328
11.8248
11.8153
11.8042
11.7915
11.7768
11.7599
11.7408
11.7191
11.6945
11.6668
11.6364
11.8582
11.8599
11.8596
11.8576
11.8542
11.8497
11.8442
11.8376
11.8301
11.8214
11.8116
11.8005
11.788
11.774
11.7584
11.7409
11.7204
11.6987
11.8787
11.8773
11.8756
11.8731
11.8698
11.866
11.8617
11.8569
11.8515
11.8455
11.8389
11.8317
11.8238
11.8151
11.8058
11.7954
11.7822
11.7693
11.8981
11.8943
11.8914
11.8881
11.8847
11.8814
11.8779
11.8745
11.8709
11.8673
11.8636
11.8599
11.8559
11.8519
11.8479
11.8435
11.8363
11.8295
11.911
11.9062
11.9026
11.8987
11.8951
11.8918
11.8889
11.8864
11.8843
11.8825
11.8811
11.88
11.8792
11.8788
11.8788
11.8789
11.8763
11.8739
11.9201
11.9148
11.9105
11.9057
11.9016
11.8983
11.8956
11.8938
11.8926
11.8923
11.8926
11.8937
11.8954
11.8978
11.9009
11.9044
11.9055
11.9063
11.9261
11.9208
11.9156
11.9099
11.9052
11.9016
11.899
11.8975
11.8971
11.8978
11.8996
11.9022
11.9058
11.9103
11.9158
11.9219
11.9259
11.9289
11.9296
11.925
11.9188
11.912
11.9068
11.9028
11.9001
11.8989
11.899
11.9005
11.9033
11.9072
11.9123
11.9184
11.9257
11.9339
11.9402
11.9447
11.9319
11.9289
11.921
11.913
11.9072
11.9027
11.8998
11.8986
11.8992
11.9013
11.9048
11.9098
11.916
11.9235
11.9323
11.942
11.9503
11.9562
11.9333
11.9347
11.9236
11.9135
11.907
11.9019
11.8986
11.8974
11.8983
11.9008
11.905
11.9108
11.918
11.9265
11.9365
11.9476
11.9578
11.965
11.9233
11.9398
11.9263
11.9141
11.9065
11.9005
11.8968
11.8957
11.8968
11.8998
11.9045
11.9109
11.9189
11.9283
11.9393
11.9515
11.9636
11.9722
11.888
11.9329
11.9247
11.9136
11.9052
11.8983
11.8944
11.8935
11.895
11.8983
11.9036
11.9106
11.9193
11.9295
11.9412
11.9544
11.968
11.9787
11.9104
11.923
11.9171
11.911
11.9026
11.8951
11.8913
11.8909
11.8929
11.8968
11.9026
11.9101
11.9194
11.9302
11.9426
11.9564
11.9713
11.9847
12.2916
12.0262
11.9321
11.9125
11.9018
11.8935
11.8898
11.8897
11.8919
11.8961
11.9021
11.9099
11.9195
11.9307
11.9434
11.9575
11.9731
11.9887
5.86831
5.8774
5.88724
5.89781
5.90927
5.92172
5.93488
5.94848
5.9623
5.97609
5.98964
6.00276
6.01526
6.02684
6.03724
6.04614
6.05331
6.05852
6.06151
6.062
6.05975
6.05442
6.04557
6.0319
6.01453
5.99024
5.94922
5.90075
5.8521
5.79085
5.72455
5.67865
5.64186
5.59358
5.53407
5.47419
5.41846
5.3669
5.31407
5.26175
5.21199
5.16361
5.11661
5.0712
5.02765
4.98632
4.94756
4.91168
4.87896
4.8496
4.82372
4.80139
4.78261
4.76736
4.75552
4.747
4.74165
4.7393
4.73978
4.74293
4.74853
4.75641
4.76636
4.77819
4.79169
4.80663
4.82282
4.84002
4.85798
4.87642
4.89502
4.91364
4.93221
4.9505
4.96829
4.98536
5.00159
5.01696
5.03122
5.04419
5.05577
5.06589
5.07454
5.08177
5.08763
5.09223
5.09566
5.09795
5.09912
5.09912
5.09789
5.0953
5.09124
5.0855
5.07785
5.06798
5.0555
5.03992
5.02069
4.99717
4.96867
4.93442
4.89366
4.84561
4.78951
4.72467
4.65047
4.56642
4.47216
4.36751
4.25252
4.12744
3.99277
3.84929
3.69803
3.54015
3.37695
3.21008
3.04144
2.87182
2.70303
2.54016
2.38223
2.2284
2.08897
1.95513
1.81966
1.6913
1.57781
1.47477
1.37599
1.28212
1.19265
1.10309
1.01909
0.944765
0.872877
0.807031
0.746606
0.681711
0.623985
0.580836
0.54439
0.509763
0.478732
0.453482
0.433393
0.418814
0.407885
0.400455
0.399106
0.403056
0.409773
0.420656
0.436458
0.453007
0.467406
0.492079
0.521155
0.541785
0.565554
0.591847
0.614996
0.635277
0.652671
0.6664
0.676261
0.682532
0.685321
0.684624
0.680634
0.673698
0.664293
0.652979
0.640364
0.627093
0.613933
0.601888
0.593621
0.591842
5.86806
5.87453
5.88193
5.89023
5.90003
5.91183
5.9254
5.94026
5.95594
5.97201
5.98806
6.00368
6.01844
6.03233
6.04524
6.05672
6.0663
6.07355
6.07805
6.07954
6.07781
6.07277
6.06397
6.05041
6.03158
6.00833
5.972
5.93081
5.88455
5.82674
5.77865
5.74522
5.70169
5.6441
5.58682
5.53195
5.47712
5.41833
5.35915
5.30325
5.24923
5.19666
5.14577
5.09689
5.05038
5.00663
4.96596
4.92865
4.8949
4.86482
4.83848
4.81587
4.79693
4.78156
4.76963
4.76099
4.75547
4.7529
4.75308
4.75584
4.76097
4.76828
4.77756
4.78861
4.80122
4.81519
4.8303
4.84635
4.86314
4.8805
4.89826
4.91621
4.93407
4.95161
4.96855
4.98477
5.00006
5.01407
5.0267
5.03789
5.04756
5.05568
5.06224
5.06731
5.07095
5.07329
5.07442
5.0744
5.07325
5.07093
5.06738
5.06247
5.05608
5.04803
5.03809
5.02597
5.01129
4.99361
4.97238
4.94701
4.91681
4.88108
4.83906
4.79003
4.73327
4.66812
4.59399
4.51044
4.41713
4.3139
4.2008
4.07809
3.94624
3.80597
3.65826
3.50417
3.34488
3.18196
3.01681
2.84963
2.68406
2.52396
2.36018
2.2228
2.09544
1.95105
1.80942
1.6858
1.58274
1.48163
1.38316
1.29309
1.19375
1.1006
1.02987
0.957886
0.89085
0.817403
0.73454
0.67271
0.631096
0.588556
0.54649
0.50963
0.480398
0.454853
0.432472
0.41381
0.401107
0.396223
0.394646
0.395651
0.401733
0.411775
0.423534
0.440025
0.462534
0.478251
0.496237
0.525128
0.547671
0.570069
0.594283
0.614664
0.632189
0.646331
0.656764
0.663592
0.667032
0.667133
0.664057
0.658117
0.64975
0.639483
0.627899
0.615626
0.603424
0.592203
0.584059
0.579932
5.87674
5.88202
5.88776
5.8949
5.90449
5.91702
5.93194
5.94845
5.96584
5.9835
6.00091
6.01762
6.03326
6.04773
6.06086
6.0723
6.08174
6.08886
6.09345
6.09511
6.09351
6.08862
6.07998
6.06671
6.04827
6.02434
5.99307
5.95529
5.91314
5.86526
5.81739
5.7725
5.72452
5.66971
5.61179
5.55315
5.49468
5.4352
5.37539
5.31696
5.26022
5.20559
5.1535
5.10426
5.05811
5.01526
4.97587
4.94006
4.90789
4.87938
4.85451
4.83323
4.81544
4.80104
4.78989
4.78185
4.77677
4.77448
4.7748
4.77756
4.78256
4.78963
4.79856
4.80915
4.82121
4.83452
4.84887
4.86404
4.87982
4.896
4.91241
4.92886
4.94511
4.96092
4.97603
4.99023
5.00328
5.01495
5.0251
5.03365
5.04052
5.04569
5.04917
5.05102
5.05134
5.05026
5.04791
5.04437
5.03967
5.0338
5.02668
5.01822
5.00827
4.99666
4.9832
4.96762
4.94956
4.92862
4.9043
4.87602
4.84315
4.80502
4.76095
4.71023
4.65222
4.5863
4.51197
4.42879
4.33649
4.23493
4.12418
4.00448
3.87629
3.74029
3.59736
3.44851
3.29486
3.13781
2.97879
2.81835
2.65889
2.50448
2.35301
2.21349
2.08205
1.9488
1.81745
1.6965
1.58905
1.48763
1.38993
1.29734
1.20366
1.11453
1.03729
0.963552
0.893371
0.821791
0.747526
0.684983
0.636594
0.592323
0.550371
0.513021
0.481565
0.454346
0.431231
0.412134
0.398185
0.390952
0.387726
0.387412
0.39173
0.400286
0.411384
0.426252
0.445078
0.461072
0.480471
0.505857
0.528254
0.550429
0.573519
0.593482
0.611033
0.625524
0.636621
0.644327
0.648749
0.649936
0.648023
0.643281
0.636111
0.627003
0.616518
0.605263
0.593964
0.58341
0.575195
0.569313
5.89709
5.90049
5.90435
5.91085
5.92107
5.93495
5.95156
5.96977
5.98866
6.00749
6.02569
6.04281
6.05863
6.07307
6.08589
6.09677
6.10547
6.11187
6.11566
6.11655
6.1143
6.10854
6.09889
6.08483
6.06592
6.04204
6.01282
5.97802
5.93857
5.89457
5.84734
5.79805
5.7461
5.69054
5.632
5.57158
5.51039
5.44924
5.38881
5.32981
5.27275
5.21817
5.16646
5.11791
5.07271
5.031
4.99287
4.95836
4.9275
4.90026
4.87657
4.85637
4.83955
4.82599
4.81556
4.8081
4.80346
4.80148
4.80199
4.80481
4.80976
4.81665
4.82528
4.83546
4.84698
4.85964
4.87322
4.8875
4.90226
4.91727
4.9323
4.94713
4.96149
4.97514
4.98787
4.99947
5.00971
5.01842
5.02544
5.03068
5.03406
5.03557
5.03523
5.03311
5.02935
5.02408
5.01745
5.00959
5.00054
4.9903
4.97881
4.96599
4.9517
4.93581
4.91813
4.89843
4.87642
4.85172
4.82388
4.79237
4.75661
4.716
4.66988
4.61763
4.55865
4.49238
4.41837
4.33621
4.24568
4.14664
4.03915
3.92344
3.79993
3.66923
3.53212
3.38954
3.24253
3.0923
2.9402
2.78731
2.63536
2.48756
2.34425
2.20644
2.07546
1.94922
1.82586
1.70841
1.5995
1.49738
1.39981
1.30642
1.21616
1.12887
1.04766
0.971807
0.89974
0.829729
0.761167
0.698289
0.644572
0.597704
0.55523
0.517077
0.48371
0.454799
0.430587
0.410939
0.396014
0.386409
0.381065
0.379527
0.382306
0.389085
0.399334
0.412983
0.428403
0.444816
0.466045
0.488274
0.510113
0.533547
0.555914
0.575669
0.593345
0.608204
0.619889
0.628332
0.633553
0.635594
0.634576
0.63075
0.624489
0.616262
0.606602
0.596089
0.585381
0.575138
0.566425
0.55911
5.9384
5.93971
5.94121
5.94673
5.95719
5.97194
5.98956
6.00868
6.02822
6.04736
6.0655
6.08228
6.09759
6.11127
6.12307
6.13282
6.14032
6.14536
6.14772
6.14715
6.14338
6.13612
6.12507
6.1099
6.09031
6.06614
6.03721
6.00341
5.96493
5.92197
5.87507
5.82484
5.77159
5.71549
5.65703
5.59691
5.53583
5.47463
5.4142
5.35532
5.29858
5.24449
5.19342
5.14564
5.10131
5.06055
5.02342
4.98993
4.96007
4.93377
4.91097
4.89156
4.87543
4.86245
4.85247
4.84534
4.8409
4.839
4.83944
4.84206
4.84668
4.85309
4.8611
4.87051
4.88111
4.89269
4.90502
4.91787
4.931
4.94419
4.95718
4.96974
4.98162
4.99256
5.00237
5.01083
5.01774
5.02292
5.02623
5.02757
5.02688
5.02415
5.01942
5.01277
5.00434
4.99431
4.98285
4.97008
4.95611
4.94093
4.92452
4.90679
4.88766
4.867
4.8447
4.82055
4.79431
4.76566
4.73421
4.69949
4.66098
4.61812
4.57033
4.51704
4.45771
4.39183
4.31896
4.23876
4.15098
4.05551
3.95236
3.84173
3.72397
3.59959
3.46928
3.33386
3.19425
3.05153
2.90688
2.76157
2.61722
2.47595
2.33844
2.20482
2.07686
1.95447
1.83587
1.72174
1.61357
1.51124
1.41355
1.32011
1.23057
1.14379
1.06133
0.983889
0.910631
0.840709
0.77348
0.710561
0.654624
0.605451
0.561497
0.522058
0.487085
0.456695
0.431127
0.410308
0.394165
0.382711
0.375559
0.372686
0.37415
0.379459
0.388548
0.401019
0.415024
0.431379
0.452323
0.473396
0.494987
0.518708
0.540774
0.560622
0.578526
0.593773
0.605973
0.615007
0.62085
0.623533
0.623174
0.620017
0.61442
0.606835
0.597773
0.587778
0.577428
0.56727
0.557936
0.549483
6.0116
6.01145
6.00916
6.01223
6.02151
6.03568
6.05286
6.07147
6.09027
6.10842
6.12535
6.14084
6.15478
6.16693
6.17706
6.18501
6.19058
6.19362
6.19394
6.19135
6.18562
6.1765
6.16373
6.14705
6.12624
6.1011
6.07147
6.03727
5.99856
5.95553
5.90852
5.85799
5.80442
5.74826
5.69013
5.6307
5.57067
5.51074
5.45165
5.39409
5.33863
5.28575
5.23581
5.1891
5.14578
5.10597
5.06971
5.037
5.00783
4.98213
4.95981
4.94077
4.9249
4.91205
4.90209
4.89485
4.89018
4.88791
4.88786
4.88985
4.89369
4.89918
4.90613
4.91432
4.92353
4.93354
4.94411
4.95502
4.96602
4.97685
4.98728
4.99706
5.00593
5.01368
5.02006
5.02489
5.02796
5.02909
5.02815
5.02507
5.01977
5.01227
5.00261
4.9909
4.9773
4.962
4.94519
4.92704
4.90764
4.88706
4.86526
4.84221
4.81785
4.79211
4.76489
4.73608
4.70549
4.67285
4.63783
4.60003
4.559
4.51422
4.46519
4.41138
4.3523
4.28748
4.21651
4.13906
4.05486
3.96379
3.86582
3.76107
3.64982
3.53248
3.40961
3.28191
3.15019
3.01538
2.87853
2.74085
2.60381
2.46898
2.33697
2.20798
2.0836
1.96428
1.84894
1.7375
1.63066
1.52854
1.43078
1.33713
1.24741
1.16056
1.07736
0.998675
0.924233
0.853653
0.786455
0.723261
0.665957
0.614889
0.569147
0.528096
0.49158
0.459746
0.432767
0.41051
0.392878
0.379835
0.371183
0.366963
0.367126
0.371264
0.379198
0.390461
0.403804
0.419987
0.440054
0.460704
0.482252
0.505536
0.527457
0.547501
0.565674
0.581298
0.593971
0.603524
0.609893
0.613101
0.613265
0.610626
0.605536
0.598435
0.589815
0.580185
0.570049
0.559862
0.549945
0.540596
6.13243
6.12816
6.11953
6.11716
6.12241
6.13341
6.14785
6.16385
6.18005
6.19553
6.20985
6.22281
6.23415
6.24365
6.25113
6.25642
6.25937
6.25981
6.25758
6.25251
6.24437
6.23296
6.21803
6.19935
6.17672
6.14994
6.11891
6.08356
6.04397
6.00034
5.95299
5.90233
5.84885
5.79308
5.73566
5.67727
5.61857
5.56021
5.50282
5.44694
5.39308
5.34166
5.29302
5.24742
5.20504
5.166
5.13035
5.09812
5.06928
5.04378
5.02155
5.00248
4.98645
4.97334
4.96301
4.95529
4.95003
4.94705
4.94617
4.94721
4.94996
4.95424
4.95982
4.96649
4.97403
4.9822
4.99075
4.99943
5.008
5.0162
5.02378
5.03048
5.03605
5.04026
5.04288
5.04372
5.04258
5.03929
5.03371
5.02576
5.01542
5.0027
4.98766
4.97043
4.95119
4.93016
4.90754
4.88355
4.8583
4.83188
4.8043
4.77556
4.74565
4.71453
4.68219
4.64856
4.61351
4.57686
4.53832
4.49757
4.45421
4.40779
4.35785
4.30392
4.24554
4.18228
4.11372
4.03953
3.95944
3.87327
3.78095
3.68252
3.57816
3.46819
3.35304
3.23328
3.1096
2.9828
2.85381
2.72371
2.59375
2.46516
2.33854
2.2143
2.09367
1.97723
1.86449
1.75535
1.64987
1.54823
1.45046
1.35653
1.26625
1.17894
1.09502
1.01526
0.939707
0.868196
0.800397
0.736597
0.678089
0.625332
0.577825
0.53509
0.496991
0.463649
0.435194
0.411456
0.392304
0.377741
0.367687
0.362157
0.361059
0.364077
0.37095
0.381204
0.394029
0.409884
0.429115
0.4495
0.471007
0.493817
0.515639
0.535886
0.554331
0.570318
0.583435
0.593461
0.6003
0.603959
0.604555
0.602329
0.597634
0.590903
0.582609
0.573232
0.563214
0.552941
0.542516
0.532463
6.30972
6.29757
6.27846
6.26644
6.26345
6.26768
6.27633
6.28718
6.29862
6.30977
6.32009
6.32924
6.33687
6.34277
6.34674
6.34862
6.34827
6.34552
6.3402
6.33213
6.3211
6.30689
6.28928
6.26807
6.24306
6.21413
6.18119
6.14425
6.10342
6.05893
6.01108
5.96029
5.90702
5.85182
5.79527
5.73799
5.68061
5.6237
5.5678
5.5134
5.46091
5.41072
5.36313
5.31838
5.27666
5.23809
5.20275
5.17066
5.14182
5.11619
5.0937
5.07428
5.05781
5.04416
5.0332
5.02477
5.01871
5.01484
5.01297
5.01292
5.01448
5.01743
5.02158
5.02667
5.03248
5.03875
5.04524
5.05166
5.05777
5.06328
5.06794
5.07148
5.07364
5.07419
5.07289
5.06956
5.064
5.05604
5.04553
5.03242
5.0167
4.99838
4.97757
4.95441
4.9291
4.9019
4.87305
4.84276
4.81123
4.77855
4.7448
4.70999
4.67419
4.63741
4.5997
4.56105
4.52142
4.48067
4.4386
4.39495
4.34936
4.30146
4.25083
4.19703
4.13963
4.07821
4.01237
3.94174
3.86604
3.78503
3.69857
3.60663
3.5093
3.40677
3.29937
3.18754
3.07184
2.95295
2.83168
2.70896
2.58584
2.46329
2.34195
2.22238
2.10551
1.99192
1.88153
1.77435
1.67026
1.56924
1.47152
1.37725
1.28633
1.19837
1.11371
1.03297
0.956327
0.883754
0.815051
0.750413
0.69071
0.63637
0.587156
0.542748
0.503045
0.468148
0.438169
0.41294
0.392302
0.376279
0.364861
0.358051
0.355739
0.357661
0.363528
0.372908
0.385222
0.400667
0.419219
0.439358
0.460774
0.483234
0.50501
0.525457
0.544169
0.56051
0.574048
0.584515
0.59178
0.595836
0.596799
0.594912
0.59053
0.58408
0.576027
0.566825
0.556864
0.546479
0.535629
0.525022
6.53418
6.51328
6.4822
6.45819
6.44414
6.43853
6.43864
6.44189
6.44665
6.45176
6.45659
6.46055
6.4633
6.46455
6.46411
6.4618
6.45743
6.45085
6.44185
6.43023
6.41579
6.3983
6.37756
6.35338
6.32561
6.29415
6.25899
6.22018
6.17787
6.13229
6.08377
6.03269
5.9795
5.9247
5.86883
5.81243
5.75605
5.70021
5.64539
5.592
5.54044
5.49103
5.44406
5.39977
5.35833
5.31987
5.28449
5.25222
5.22308
5.19705
5.17407
5.15408
5.13698
5.12264
5.11092
5.10169
5.09476
5.08996
5.0871
5.08599
5.0864
5.08813
5.09093
5.09457
5.09879
5.10333
5.1079
5.11223
5.11603
5.11901
5.12087
5.12136
5.12019
5.11712
5.11191
5.10437
5.09432
5.08157
5.06598
5.04749
5.02611
5.0019
4.97497
4.9455
4.91372
4.87992
4.84437
4.80735
4.76907
4.72968
4.6893
4.64801
4.60591
4.56311
4.5197
4.47577
4.43132
4.38631
4.3406
4.29398
4.24616
4.19681
4.14556
4.092
4.03571
3.97629
3.9133
3.84638
3.77518
3.69942
3.61888
3.53346
3.44314
3.348
3.24826
3.14424
3.03637
2.9252
2.81142
2.69581
2.57925
2.46256
2.34637
2.2313
2.11812
2.00737
1.89924
1.79387
1.6911
1.59076
1.49313
1.39854
1.30699
1.21836
1.13294
1.05124
0.973523
0.899833
0.830091
0.764467
0.703551
0.647701
0.596842
0.550789
0.509488
0.473025
0.441506
0.414797
0.392713
0.375286
0.362541
0.354477
0.350989
0.35184
0.356741
0.365309
0.377095
0.392099
0.410099
0.429994
0.451282
0.473501
0.495282
0.515926
0.534902
0.551596
0.565538
0.57642
0.584079
0.588492
0.589776
0.588176
0.584047
0.57782
0.569949
0.560868
0.550931
0.540434
0.529243
0.518201
6.79199
6.76351
6.72187
6.6858
6.65992
6.64301
6.63283
6.62684
6.6232
6.62074
6.61854
6.61596
6.61261
6.60817
6.60238
6.59504
6.58594
6.57487
6.56161
6.54594
6.52762
6.50645
6.48222
6.45477
6.42398
6.38978
6.35221
6.31133
6.26734
6.22047
6.17103
6.11939
6.06598
6.01123
5.95562
5.89965
5.84379
5.7885
5.73421
5.68131
5.63013
5.58101
5.53419
5.48991
5.44835
5.40964
5.37389
5.34115
5.31146
5.28481
5.26117
5.24046
5.22261
5.20751
5.19501
5.18496
5.17721
5.17156
5.16782
5.16578
5.16522
5.16592
5.16762
5.17007
5.17299
5.17609
5.17908
5.18164
5.18345
5.1842
5.18358
5.18128
5.17702
5.17052
5.16155
5.1499
5.1354
5.11787
5.09713
5.07314
5.04593
5.01557
4.98221
4.94607
4.90742
4.86658
4.82388
4.77963
4.73409
4.68748
4.63996
4.59168
4.54282
4.49353
4.44402
4.39441
4.34482
4.29527
4.24567
4.1959
4.14572
4.09484
4.04292
3.98958
3.93442
3.87701
3.81691
3.75371
3.68701
3.61648
3.54183
3.46286
3.37946
3.2916
3.19937
3.10298
3.00273
2.89906
2.79251
2.68375
2.5735
2.46246
2.35126
2.24051
2.13089
2.02295
1.91702
1.81337
1.71186
1.61223
1.51474
1.41986
1.32773
1.23844
1.15226
1.06964
0.990874
0.916064
0.845229
0.77853
0.716387
0.659088
0.606652
0.559001
0.516127
0.478115
0.445081
0.416909
0.393423
0.374637
0.360601
0.351314
0.346678
0.346483
0.35045
0.35824
0.369479
0.384027
0.401557
0.421202
0.44235
0.464409
0.48623
0.507062
0.526308
0.543351
0.557683
0.568959
0.576988
0.581732
0.583304
0.581953
0.57804
0.571995
0.564269
0.555283
0.545357
0.534764
0.523312
0.511934
7.07955
7.04397
6.99273
6.94551
6.90761
6.87898
6.85734
6.84074
6.8273
6.81572
6.80502
6.79457
6.78392
6.77269
6.7606
6.74739
6.7328
6.71659
6.69851
6.67829
6.65571
6.63051
6.60252
6.57158
6.53758
6.5005
6.46036
6.41727
6.37142
6.32304
6.27242
6.21991
6.16589
6.11076
6.05496
5.9989
5.94303
5.88775
5.83345
5.78049
5.72919
5.67985
5.63272
5.58803
5.54595
5.50664
5.4702
5.43672
5.40624
5.37877
5.35428
5.33274
5.31406
5.29814
5.28484
5.27403
5.26551
5.25912
5.25465
5.25188
5.25059
5.25053
5.25145
5.25306
5.25507
5.25716
5.259
5.26024
5.26053
5.25952
5.25685
5.25219
5.24523
5.23567
5.22324
5.20771
5.18895
5.16673
5.14091
5.11139
5.07824
5.04154
5.0015
4.95836
4.91244
4.86412
4.81378
4.76178
4.70845
4.65405
4.59882
4.54298
4.48678
4.43047
4.37432
4.31857
4.26339
4.20888
4.15506
4.10184
4.04904
3.99643
3.94369
3.89046
3.83632
3.78083
3.72354
3.66397
3.60169
3.5363
3.46742
3.39477
3.31813
3.23738
3.15248
3.06351
2.97066
2.87424
2.77466
2.67247
2.56827
2.46267
2.35627
2.24966
2.14347
2.03828
1.93452
1.83249
1.73218
1.63325
1.53592
1.44079
1.34817
1.25827
1.17135
1.08785
1.00806
0.93216
0.86022
0.792409
0.729039
0.670351
0.616413
0.567228
0.522828
0.483303
0.448774
0.41919
0.394352
0.374254
0.358962
0.348481
0.342726
0.341508
0.344569
0.351604
0.362278
0.37636
0.393465
0.412853
0.43386
0.455813
0.477686
0.498706
0.518231
0.535617
0.550325
0.561977
0.570354
0.575406
0.577242
0.576115
0.572391
0.566506
0.558906
0.550001
0.540091
0.52943
0.517794
0.506162
7.3968
7.3541
7.29389
7.23613
7.18664
7.14589
7.11229
7.08399
7.05942
7.03731
7.01678
6.99717
6.97799
6.95887
6.93946
6.91946
6.89857
6.8765
6.85296
6.82766
6.80034
6.77076
6.73871
6.70403
6.66664
6.6265
6.58364
6.53817
6.49026
6.44013
6.38805
6.33433
6.27933
6.2234
6.16692
6.11029
6.05389
5.99809
5.94326
5.88972
5.83779
5.78774
5.73983
5.69427
5.65126
5.61095
5.57347
5.53891
5.50733
5.47877
5.45322
5.43064
5.41098
5.39413
5.37997
5.36835
5.3591
5.35204
5.34695
5.34363
5.34183
5.34131
5.34178
5.34295
5.3445
5.34607
5.34729
5.34778
5.34713
5.34495
5.34084
5.33441
5.3253
5.31319
5.29777
5.27879
5.25607
5.22945
5.19873
5.1638
5.12471
5.08161
5.03471
4.98431
4.9308
4.8746
4.81616
4.7559
4.69421
4.63144
4.56789
4.50387
4.43971
4.37576
4.31237
4.24989
4.18858
4.12863
4.07014
4.01307
3.95732
3.90268
3.84886
3.7955
3.74217
3.68843
3.63375
3.57765
3.51961
3.45916
3.39587
3.32933
3.25925
3.18538
3.10757
3.02578
2.94007
2.85061
2.75773
2.66184
2.56342
2.46303
2.36124
2.25863
2.15575
2.05316
1.95141
1.85091
1.75174
1.65353
1.55638
1.46105
1.36796
1.2775
1.18987
1.10554
1.02481
0.947884
0.87487
0.805947
0.741375
0.68136
0.626003
0.575358
0.529495
0.488511
0.452539
0.421588
0.395456
0.374093
0.357582
0.34594
0.339094
0.336879
0.339057
0.345349
0.355444
0.369053
0.385754
0.404883
0.425746
0.447617
0.469551
0.490766
0.510568
0.528287
0.543355
0.555362
0.564067
0.569405
0.571484
0.570562
0.567011
0.561271
0.553789
0.544968
0.535091
0.524395
0.512648
0.500833
7.74294
7.69328
7.62523
7.55813
7.49782
7.44526
7.39947
7.35897
7.32247
7.28892
7.25751
7.22763
7.19882
7.17067
7.14283
7.11498
7.08678
7.05793
7.02808
6.99695
6.96424
6.9297
6.8931
6.85428
6.81313
6.76961
6.72374
6.67559
6.62532
6.57311
6.51921
6.46389
6.40745
6.35023
6.29257
6.23482
6.17733
6.12045
6.0645
6.0098
5.95664
5.90531
5.85604
5.80906
5.76456
5.72273
5.68369
5.64756
5.61443
5.58434
5.55733
5.53336
5.51239
5.49434
5.4791
5.46651
5.45642
5.44863
5.44295
5.43915
5.437
5.43624
5.43657
5.43769
5.43922
5.4408
5.44201
5.4424
5.44151
5.43889
5.43409
5.42664
5.41615
5.40221
5.38449
5.36269
5.33657
5.306
5.2708
5.2308
5.186
5.13661
5.08286
5.02513
4.96384
4.89949
4.83259
4.76366
4.69314
4.62146
4.54903
4.47622
4.40349
4.33126
4.26002
4.19021
4.12219
4.05626
3.99257
3.9312
3.87207
3.81502
3.75977
3.70596
3.65315
3.60085
3.54852
3.49559
3.44151
3.38572
3.32771
3.26699
3.20317
3.13587
3.06485
2.98993
2.91104
2.82825
2.74175
2.65185
2.55897
2.46361
2.36625
2.26734
2.16749
2.06733
1.96748
1.8684
1.77033
1.67287
1.57597
1.4805
1.38703
1.29599
1.2077
1.12256
1.04092
0.963005
0.888965
0.81898
0.753272
0.692014
0.635326
0.583308
0.536059
0.493686
0.456336
0.424074
0.396707
0.374136
0.356449
0.343681
0.335777
0.33259
0.333905
0.339464
0.348968
0.362095
0.378404
0.397269
0.417974
0.439775
0.461781
0.483189
0.503261
0.521299
0.536707
0.549047
0.558055
0.563657
0.565958
0.565222
0.56183
0.556229
0.548868
0.540141
0.53032
0.519629
0.507835
0.495902
8.11625
8.06046
7.98628
7.91165
7.84183
7.77835
7.72078
7.66813
7.61946
7.57395
7.53096
7.48996
7.45053
7.41231
7.37495
7.33814
7.30153
7.26481
7.22764
7.1897
7.1507
7.11037
7.06848
7.02483
6.97931
6.93183
6.88239
6.83104
6.77788
6.72306
6.66678
6.60927
6.55081
6.49167
6.43217
6.37261
6.31333
6.25464
6.19684
6.14025
6.08513
6.03177
5.9804
5.93126
5.88456
5.84047
5.79917
5.76079
5.72544
5.6932
5.66411
5.63818
5.61539
5.59567
5.57892
5.56501
5.55378
5.54504
5.53861
5.53428
5.5318
5.53092
5.53134
5.53272
5.53468
5.5368
5.53861
5.5396
5.53927
5.53707
5.53247
5.52496
5.51404
5.49926
5.4802
5.45651
5.4279
5.39421
5.35525
5.31085
5.26093
5.20571
5.14548
5.08066
5.01174
4.93928
4.86387
4.7861
4.70651
4.62561
4.54389
4.46186
4.38004
4.29903
4.21939
4.14169
4.06641
3.99394
3.92455
3.85837
3.79537
3.73544
3.67831
3.62361
3.57088
3.51959
3.46917
3.41898
3.36842
3.31686
3.2637
3.20839
3.1504
3.08928
3.02464
2.9562
2.88378
2.80729
2.72682
2.64265
2.55509
2.46441
2.37103
2.27551
2.17843
2.08049
1.98239
1.88469
1.7877
1.69107
1.59453
1.49903
1.40528
1.31373
1.2248
1.1389
1.05638
0.977521
0.902478
0.831445
0.764637
0.702212
0.644297
0.591011
0.542482
0.498804
0.460152
0.426639
0.398105
0.37439
0.355578
0.341726
0.332797
0.328664
0.329136
0.333969
0.342876
0.355517
0.371428
0.390006
0.410546
0.432291
0.45437
0.475961
0.496287
0.514623
0.530347
0.542992
0.552277
0.558116
0.560616
0.560047
0.556803
0.551337
0.544101
0.535484
0.525748
0.515103
0.503323
0.491328
8.51351
8.45436
8.37569
8.29357
8.21359
8.13829
8.06805
8.00245
7.9409
7.88283
7.82768
7.77501
7.72443
7.67557
7.62811
7.5817
7.53603
7.49075
7.44554
7.40008
7.35407
7.30724
7.25935
7.21019
7.15962
7.10754
7.05389
6.99869
6.94199
6.8839
6.82458
6.7642
6.70301
6.64124
6.57918
6.51709
6.45528
6.39404
6.33366
6.27442
6.21661
6.16047
6.10627
6.05424
6.00459
5.95754
5.91326
5.87192
5.83365
5.79856
5.76673
5.7382
5.71297
5.69098
5.67217
5.6564
5.64354
5.63343
5.62587
5.62068
5.61762
5.61645
5.61687
5.61851
5.62099
5.62382
5.62651
5.62848
5.62915
5.62791
5.62414
5.61725
5.60666
5.59183
5.57228
5.54758
5.51738
5.48145
5.43961
5.39168
5.33752
5.27728
5.21134
5.14015
5.06426
4.9843
4.90094
4.81483
4.7266
4.63686
4.5462
4.45524
4.36463
4.27507
4.18726
4.10189
4.01954
3.94071
3.86574
3.79483
3.72803
3.66522
3.60614
3.55043
3.4976
3.44708
3.39825
3.35044
3.30299
3.25519
3.2064
3.15597
3.10328
3.04779
2.989
2.92651
2.86002
2.78934
2.71453
2.63567
2.55278
2.46617
2.37627
2.28363
2.18894
2.09301
1.99653
1.90012
1.80424
1.70827
1.6121
1.51663
1.42265
1.3307
1.24123
1.15464
1.07131
0.991512
0.91548
0.84342
0.775541
0.711995
0.652912
0.598419
0.5487
0.503803
0.463939
0.429252
0.39962
0.374838
0.354965
0.340082
0.330172
0.325131
0.324783
0.328902
0.337206
0.349349
0.364858
0.38315
0.403524
0.425208
0.447351
0.469105
0.489662
0.50827
0.524279
0.537197
0.546725
0.552769
0.555439
0.555015
0.551904
0.546569
0.539464
0.530975
0.521353
0.510794
0.499084
0.487077
8.95186
8.88142
8.78941
8.69271
8.59692
8.50543
8.41923
8.33821
8.26203
8.19017
8.12211
8.05735
7.99543
7.93594
7.87846
7.82262
7.76803
7.71433
7.66117
7.60821
7.55515
7.50173
7.44769
7.39282
7.33696
7.27997
7.22178
7.16236
7.10172
7.03995
6.97714
6.91346
6.84909
6.78424
6.71916
6.65411
6.58935
6.52515
6.46178
6.39952
6.33864
6.27937
6.22199
6.16671
6.11378
6.0634
6.01578
5.97108
5.92948
5.89111
5.85607
5.82443
5.79622
5.77141
5.74995
5.73173
5.71663
5.70449
5.69516
5.68845
5.68417
5.68207
5.68186
5.68319
5.68563
5.6887
5.69183
5.69442
5.6958
5.69532
5.69229
5.68603
5.67592
5.66131
5.64167
5.61648
5.58535
5.54795
5.50413
5.45365
5.39639
5.33238
5.26204
5.18587
5.10447
5.01851
4.92871
4.8358
4.74049
4.64347
4.54543
4.44709
4.34922
4.25261
4.15807
4.06637
3.97821
3.89414
3.81459
3.73981
3.66987
3.60469
3.54402
3.48748
3.43457
3.38469
3.33721
3.29141
3.2466
3.20204
3.15703
3.11085
3.06282
3.01231
2.95873
2.90155
2.84046
2.77515
2.70535
2.63096
2.55206
2.46888
2.38188
2.29175
2.19921
2.10502
2.00993
1.91459
1.81954
1.72425
1.62845
1.53302
1.43886
1.34656
1.25659
1.1694
1.08534
1.00474
0.927821
0.854816
0.785926
0.721318
0.661139
0.605533
0.554663
0.508641
0.467646
0.431849
0.401187
0.375413
0.354545
0.338687
0.327847
0.321937
0.3208
0.324222
0.331929
0.343572
0.358684
0.376681
0.396878
0.418498
0.440688
0.462584
0.48335
0.502203
0.518466
0.531624
0.541361
0.547577
0.550388
0.550087
0.547095
0.541889
0.534926
0.526585
0.51711
0.506678
0.495087
0.483118
9.39522
9.30904
9.20088
9.08803
8.97544
8.86698
8.76407
8.66695
8.57546
8.48922
8.4077
8.33039
8.25675
8.1863
8.11857
8.0531
7.98945
7.9272
7.86592
7.80531
7.74504
7.68484
7.62449
7.56376
7.50248
7.44048
7.37765
7.31393
7.2493
7.18377
7.11743
7.05038
6.98277
6.9148
6.84666
6.7786
6.71085
6.64366
6.57729
6.512
6.44802
6.38562
6.32502
6.26646
6.21017
6.15636
6.10525
6.05704
6.01188
5.96995
5.9314
5.89633
5.8648
5.83683
5.81236
5.79132
5.77358
5.75903
5.74753
5.73893
5.73306
5.72972
5.72864
5.72948
5.73182
5.73512
5.73881
5.74221
5.74464
5.74535
5.74362
5.7387
5.72987
5.71643
5.69774
5.67321
5.64237
5.60481
5.56032
5.5087
5.44973
5.38338
5.31005
5.2303
5.14475
5.0541
4.95914
4.86065
4.75941
4.6562
4.55181
4.44704
4.34276
4.23986
4.13922
4.04171
3.9481
3.85905
3.77502
3.69634
3.62311
3.55529
3.49263
3.43477
3.3812
3.33133
3.28448
3.23996
3.19703
3.15494
3.11294
3.07028
3.02622
2.98004
2.93108
2.87881
2.82273
2.76208
2.69661
2.62617
2.55074
2.47062
2.38638
2.29862
2.20803
2.11542
2.0216
1.92727
1.83301
1.73841
1.64305
1.54779
1.45359
1.36109
1.27081
1.18318
1.09858
1.01733
0.939686
0.865889
0.796142
0.730619
0.669475
0.612861
0.560937
0.513857
0.4718
0.43495
0.403308
0.376596
0.354779
0.337985
0.326242
0.319483
0.317567
0.32029
0.327384
0.338501
0.353186
0.370864
0.390852
0.412373
0.434571
0.456567
0.477497
0.496549
0.513018
0.526367
0.536262
0.542604
0.545513
0.545301
0.542406
0.537316
0.530496
0.522318
0.513014
0.502743
0.491313
0.479419
9.7842
9.69018
9.57387
9.45278
9.33085
9.21186
9.09753
8.98846
8.88474
8.78625
8.69264
8.6035
8.51842
8.43696
8.35871
8.28325
8.21023
8.13927
8.06932
8.00111
7.93382
7.86704
7.80058