/*--------------------------------*- C++ -*----------------------------------*\
  =========                 |
  \\      /  F ield         | OpenFOAM: The Open Source CFD Toolbox
   \\    /   O peration     | Website:  https://openfoam.org
    \\  /    A nd           | Version:  9
     \\/     M anipulation  |
\*---------------------------------------------------------------------------*/
FoamFile
{
    format      ascii;
    class       surfaceScalarField;
    location    "0.18";
    object      phi;
}
// * * * * * * * * * * * * * * * * * * * * * * * * * * * * * * * * * * * * * //

dimensions      [0 3 -1 0 0 0 0];

internalField   nonuniform List<scalar> 
24170
(
3.03567e-07
1.52741e-08
2.66485e-07
3.70817e-08
2.38702e-07
2.77827e-08
2.17134e-07
2.15682e-08
2.01686e-07
1.54475e-08
1.91308e-07
1.03783e-08
1.84074e-07
7.23426e-09
1.78689e-07
5.38471e-09
1.74581e-07
4.10857e-09
1.71567e-07
3.01381e-09
1.69651e-07
1.91602e-09
1.68981e-07
6.69355e-10
1.69851e-07
-8.69414e-10
1.72857e-07
-3.00651e-09
1.79395e-07
-6.53782e-09
1.92987e-07
-1.35922e-08
2.20566e-07
-2.75791e-08
-7.41677e-08
2.94734e-07
3.4762e-07
9.37877e-09
3.39726e-07
4.49762e-08
3.26797e-07
4.07112e-08
3.14529e-07
3.38366e-08
3.03846e-07
2.61309e-08
2.95196e-07
1.9028e-08
2.88549e-07
1.38814e-08
2.83591e-07
1.03424e-08
2.80058e-07
7.64114e-09
2.77835e-07
5.23744e-09
2.76966e-07
2.78456e-09
2.7768e-07
-4.45501e-11
2.8047e-07
-3.65886e-09
2.86221e-07
-8.75808e-09
2.96808e-07
-1.71247e-08
3.15023e-07
-3.18071e-08
3.55134e-07
-6.76901e-08
-1.27253e-07
4.0822e-07
3.6609e-07
9.53995e-09
3.69048e-07
4.20189e-08
3.65806e-07
4.39531e-08
3.60243e-07
3.93993e-08
3.53726e-07
3.26483e-08
3.47317e-07
2.54369e-08
3.41715e-07
1.94837e-08
3.37148e-07
1.49093e-08
3.33627e-07
1.11618e-08
3.31134e-07
7.73022e-09
3.29716e-07
4.20308e-09
3.29524e-07
1.46771e-10
3.30899e-07
-5.03352e-09
3.34408e-07
-1.22674e-08
3.40984e-07
-2.37006e-08
3.51615e-07
-4.24375e-08
3.63599e-07
-7.96745e-08
-1.37884e-07
3.74229e-07
3.9273e-07
9.34841e-09
3.97114e-07
3.76357e-08
3.97703e-07
4.33634e-08
3.95708e-07
4.13942e-08
3.92076e-07
3.62802e-08
3.87696e-07
2.98172e-08
3.83345e-07
2.38348e-08
3.79455e-07
1.87992e-08
3.76204e-07
1.44128e-08
3.73664e-07
1.02699e-08
3.719e-07
5.967e-09
3.71016e-07
1.03073e-09
3.71196e-07
-5.2131e-09
3.72683e-07
-1.37542e-08
3.75546e-07
-2.65639e-08
3.79241e-07
-4.61323e-08
3.79021e-07
-7.94548e-08
-1.2731e-07
3.68447e-07
4.21747e-07
8.31459e-09
4.26162e-07
3.32202e-08
4.28485e-07
4.10403e-08
4.28643e-07
4.12367e-08
4.27115e-07
3.78076e-08
4.24491e-07
3.2441e-08
4.21432e-07
2.68941e-08
4.18406e-07
2.18256e-08
4.15667e-07
1.71519e-08
4.13345e-07
1.25917e-08
4.1152e-07
7.79222e-09
4.10254e-07
2.29598e-09
4.09597e-07
-4.55527e-09
4.09515e-07
-1.36727e-08
4.09552e-07
-2.66011e-08
4.08415e-07
-4.49949e-08
4.01581e-07
-7.26207e-08
-1.07605e-07
3.81876e-07
4.52315e-07
6.90838e-09
4.56662e-07
2.88732e-08
4.59913e-07
3.77887e-08
4.61474e-07
3.9676e-08
4.61503e-07
3.77792e-08
4.60336e-07
3.36074e-08
4.58479e-07
2.87511e-08
4.56357e-07
2.39481e-08
4.54236e-07
1.92725e-08
4.52268e-07
1.45601e-08
4.50529e-07
9.5312e-09
4.49037e-07
3.7876e-09
4.47723e-07
-3.24128e-09
4.46346e-07
-1.22951e-08
4.4416e-07
-2.44152e-08
4.39639e-07
-4.04738e-08
4.29002e-07
-6.19841e-08
-8.51417e-08
4.06538e-07
4.8481e-07
5.3699e-09
4.89067e-07
2.46172e-08
4.92826e-07
3.40294e-08
4.95316e-07
3.71861e-08
4.96491e-07
3.66039e-08
4.96504e-07
3.35948e-08
4.95708e-07
2.9547e-08
4.94451e-07
2.5205e-08
4.92974e-07
2.07494e-08
4.91417e-07
1.61166e-08
4.89839e-07
1.11097e-08
4.88208e-07
5.41869e-09
4.86361e-07
-1.3945e-09
4.83915e-07
-9.84896e-09
4.80019e-07
-2.05194e-08
4.73205e-07
-3.36602e-08
4.60571e-07
-4.93492e-08
-6.2959e-08
4.38388e-07
5.19583e-07
3.74467e-09
5.23695e-07
2.0506e-08
5.277e-07
3.00234e-08
5.30796e-07
3.40902e-08
5.32809e-07
3.45917e-08
5.33757e-07
3.26465e-08
5.33865e-07
2.94384e-08
5.33394e-07
2.56762e-08
5.32536e-07
2.16075e-08
5.31402e-07
1.7251e-08
5.30017e-07
1.24945e-08
5.28305e-07
7.13093e-09
5.26036e-07
8.7422e-10
5.22753e-07
-6.56625e-09
5.17627e-07
-1.53931e-08
5.09401e-07
-2.5434e-08
4.96022e-07
-3.59704e-08
-4.23756e-08
4.75439e-07
5.56847e-07
2.03111e-09
5.60776e-07
1.65775e-08
5.64863e-07
2.59362e-08
5.6834e-07
3.06134e-08
5.70953e-07
3.19782e-08
5.72631e-07
3.09689e-08
5.7349e-07
2.85791e-08
5.73706e-07
2.54607e-08
5.73413e-07
2.18998e-08
5.72683e-07
1.79811e-08
5.71505e-07
1.36731e-08
5.69762e-07
8.87366e-09
5.6719e-07
3.44658e-09
5.6332e-07
-2.69688e-09
5.57421e-07
-9.49388e-09
5.48508e-07
-1.65211e-08
5.35268e-07
-2.273e-08
-2.38885e-08
5.16781e-07
5.96766e-07
2.43136e-10
6.00492e-07
1.28508e-08
6.04542e-07
2.18865e-08
6.08224e-07
2.69317e-08
6.11242e-07
2.89605e-08
6.1346e-07
2.87505e-08
6.14912e-07
2.71272e-08
6.15695e-07
2.46778e-08
6.15887e-07
2.17071e-08
6.15517e-07
1.83512e-08
6.14539e-07
1.46511e-08
6.12812e-07
1.06006e-08
6.10066e-07
6.19323e-09
6.05873e-07
1.49607e-09
5.9964e-07
-3.26131e-09
5.90667e-07
-7.54745e-09
5.78213e-07
-1.02761e-08
-7.70753e-09
5.62032e-07
6.39526e-07
-1.60139e-09
6.42996e-07
9.38057e-09
6.46878e-07
1.8004e-08
6.50571e-07
2.32391e-08
6.53767e-07
2.57646e-08
6.56294e-07
2.62234e-08
6.58121e-07
2.53008e-08
6.59279e-07
2.35198e-08
6.59795e-07
2.11904e-08
6.59659e-07
1.84871e-08
6.588e-07
1.55103e-08
6.57068e-07
1.23327e-08
6.54216e-07
9.04521e-09
6.49897e-07
5.81546e-09
6.43687e-07
2.94856e-09
6.35165e-07
9.74229e-10
6.24027e-07
8.61828e-10
5.719e-09
6.10601e-07
5.75791e-07
-3.30881e-09
5.78648e-07
6.52364e-09
5.81831e-07
1.4821e-08
5.84947e-07
2.0123e-08
5.87744e-07
2.29676e-08
5.90058e-07
2.39088e-08
5.91822e-07
2.35375e-08
5.93015e-07
2.23262e-08
5.93624e-07
2.05814e-08
5.93611e-07
1.85002e-08
5.929e-07
1.62214e-08
5.91367e-07
1.38663e-08
5.88833e-07
1.15788e-08
5.85081e-07
9.56751e-09
5.79888e-07
8.14141e-09
5.73114e-07
7.74812e-09
5.64786e-07
9.1896e-09
1.55298e-08
5.54976e-07
7.01574e-07
-5.06762e-09
7.04793e-07
3.30511e-09
7.08304e-07
1.131e-08
7.11827e-07
1.66002e-08
7.151e-07
1.96942e-08
7.17926e-07
2.10831e-08
7.20194e-07
2.12693e-08
7.21847e-07
2.06727e-08
7.22839e-07
1.959e-08
7.23106e-07
1.8233e-08
7.22558e-07
1.67691e-08
7.21069e-07
1.53551e-08
7.18482e-07
1.41662e-08
7.1463e-07
1.34199e-08
7.09381e-07
1.33904e-08
7.02713e-07
1.44162e-08
6.94738e-07
1.71648e-08
2.49486e-08
6.85319e-07
8.54885e-07
-6.86772e-09
8.58575e-07
-3.85335e-10
8.62546e-07
7.33874e-09
8.66616e-07
1.25312e-08
8.70529e-07
1.57806e-08
8.74056e-07
1.75564e-08
8.77039e-07
1.8286e-08
8.79376e-07
1.8336e-08
8.80981e-07
1.79853e-08
8.81764e-07
1.74499e-08
8.8162e-07
1.69126e-08
8.80428e-07
1.65467e-08
8.78061e-07
1.6534e-08
8.74407e-07
1.70739e-08
8.69414e-07
1.83834e-08
8.63141e-07
2.0689e-08
8.55727e-07
2.45786e-08
3.37498e-08
8.46926e-07
1.04166e-06
-8.60813e-09
1.04577e-06
-4.48817e-09
1.05016e-06
2.94243e-09
1.05473e-06
7.96453e-09
1.05923e-06
1.12771e-08
1.06342e-06
1.33664e-08
1.0671e-06
1.46085e-08
1.07012e-06
1.53184e-08
1.07235e-06
1.5749e-08
1.0737e-06
1.61064e-08
1.07404e-06
1.657e-08
1.07328e-06
1.73068e-08
1.07133e-06
1.84792e-08
1.06816e-06
2.02454e-08
1.06379e-06
2.2752e-08
1.05836e-06
2.61229e-08
1.05202e-06
3.09139e-08
4.11999e-08
1.04457e-06
1.26921e-06
-1.01427e-08
1.27352e-06
-8.79857e-09
1.27822e-06
-1.75476e-09
1.28318e-06
3.00841e-09
1.28817e-06
6.28264e-09
1.29294e-06
8.59382e-09
1.29727e-06
1.02869e-08
1.30095e-06
1.16294e-08
1.30387e-06
1.28383e-08
1.30588e-06
1.40936e-08
1.3069e-06
1.55502e-08
1.30686e-06
1.73462e-08
1.30573e-06
1.96038e-08
1.30355e-06
2.24261e-08
1.30042e-06
2.58873e-08
1.29651e-06
3.00275e-08
1.29203e-06
3.5399e-08
4.63433e-08
1.28688e-06
1.54651e-06
-1.13337e-08
1.55068e-06
-1.29687e-08
1.55548e-06
-6.55559e-09
1.5607e-06
-2.21562e-09
1.56611e-06
8.72227e-10
1.57144e-06
3.27299e-09
1.57642e-06
5.30445e-09
1.58086e-06
7.18567e-09
1.58461e-06
9.08706e-09
1.58756e-06
1.11452e-08
1.58964e-06
1.34728e-08
1.59082e-06
1.61622e-08
1.59114e-06
1.9285e-08
1.59068e-06
2.28883e-08
1.58958e-06
2.69863e-08
1.58804e-06
3.15638e-08
1.58627e-06
3.7171e-08
4.81769e-08
1.58444e-06
1.88453e-06
-1.20977e-08
1.88808e-06
-1.65256e-08
1.89275e-06
-1.12243e-08
1.89818e-06
-7.64625e-09
1.90406e-06
-4.99974e-09
1.91005e-06
-2.72415e-09
1.9159e-06
-5.45955e-10
1.9214e-06
1.69258e-09
1.92638e-06
4.10005e-09
1.93078e-06
6.75383e-09
1.93454e-06
9.71118e-09
1.93769e-06
1.30121e-08
1.94029e-06
1.66783e-08
1.94247e-06
2.07111e-08
1.94437e-06
2.50855e-08
1.94618e-06
2.97576e-08
1.9481e-06
3.52506e-08
4.56459e-08
1.95063e-06
2.29695e-06
-1.27162e-08
2.29925e-06
-1.882e-08
2.30361e-06
-1.55848e-08
2.30941e-06
-1.34535e-08
2.31611e-06
-1.16968e-08
2.32326e-06
-9.87513e-09
2.33054e-06
-7.82351e-09
2.33771e-06
-5.48146e-09
2.34464e-06
-2.82736e-09
2.35125e-06
1.40813e-10
2.35755e-06
3.41641e-09
2.36358e-06
6.98508e-09
2.36943e-06
1.08254e-08
2.37523e-06
1.49073e-08
2.38113e-06
1.91883e-08
2.38727e-06
2.36132e-08
2.39392e-06
2.86098e-08
3.7638e-08
2.40192e-06
1.68128e-06
-1.29285e-08
1.68211e-06
-1.9647e-08
1.68502e-06
-1.84932e-08
1.68932e-06
-1.77526e-08
1.69444e-06
-1.68208e-08
1.70001e-06
-1.54435e-08
1.70576e-06
-1.35788e-08
1.71155e-06
-1.1262e-08
1.71727e-06
-8.54889e-09
1.7229e-06
-5.49503e-09
1.72847e-06
-2.14831e-09
1.73401e-06
1.44561e-09
1.73959e-06
5.24253e-09
1.7453e-06
9.19837e-09
1.75122e-06
1.3268e-08
1.75743e-06
1.73998e-08
1.76412e-06
2.19206e-08
2.96842e-08
1.77208e-06
1.46324e-06
-1.27127e-08
1.46384e-06
-2.025e-08
1.46661e-06
-2.12575e-08
1.4707e-06
-2.18475e-08
1.47553e-06
-2.16483e-08
1.48071e-06
-2.06259e-08
1.48601e-06
-1.88777e-08
1.4913e-06
-1.65495e-08
1.49653e-06
-1.37787e-08
1.50171e-06
-1.06713e-08
1.50686e-06
-7.30616e-09
1.51206e-06
-3.74848e-09
1.51735e-06
-5.28981e-11
1.52282e-06
3.72996e-09
1.52853e-06
7.55461e-09
1.53456e-06
1.13773e-08
1.54104e-06
1.54416e-08
2.20739e-08
1.54865e-06
1.27348e-06
-1.21845e-08
1.27417e-06
-2.09381e-08
1.27703e-06
-2.41119e-08
1.28103e-06
-2.58536e-08
1.28558e-06
-2.61943e-08
1.29029e-06
-2.53358e-08
1.29495e-06
-2.3536e-08
1.29948e-06
-2.10781e-08
1.30388e-06
-1.81834e-08
1.30821e-06
-1.49957e-08
1.31251e-06
-1.16136e-08
1.31688e-06
-8.11116e-09
1.32137e-06
-4.54304e-09
1.32605e-06
-9.54401e-10
1.33099e-06
2.61417e-09
1.33624e-06
6.12517e-09
1.34193e-06
9.75449e-09
1.53744e-08
1.34863e-06
1.10825e-06
-1.13456e-08
1.10919e-06
-2.18738e-08
1.11221e-06
-2.71365e-08
1.11611e-06
-2.97511e-08
1.12028e-06
-3.03625e-08
1.12435e-06
-2.94035e-08
1.12814e-06
-2.73245e-08
1.13164e-06
-2.45772e-08
1.13492e-06
-2.14679e-08
1.13809e-06
-1.81661e-08
1.14125e-06
-1.47689e-08
1.14447e-06
-1.13405e-08
1.14786e-06
-7.9298e-09
1.15148e-06
-4.56786e-09
1.15537e-06
-1.28135e-09
1.15959e-06
1.90092e-09
1.16425e-06
5.0984e-09
9.80446e-09
1.16982e-06
9.64328e-07
-1.01518e-08
9.65593e-07
-2.31396e-08
9.68749e-07
-3.02919e-08
9.72406e-07
-3.34086e-08
9.75996e-07
-3.39524e-08
9.79162e-07
-3.25689e-08
9.81797e-07
-2.996e-08
9.83994e-07
-2.67739e-08
9.85907e-07
-2.33807e-08
9.87693e-07
-1.99524e-08
9.89496e-07
-1.65722e-08
9.91426e-07
-1.32706e-08
9.93567e-07
-1.007e-08
9.95986e-07
-6.98702e-09
9.98735e-07
-4.03041e-09
1.00185e-06
-1.21669e-09
1.00542e-06
1.53082e-09
5.40395e-09
1.00982e-06
8.38838e-07
-8.45471e-09
8.40535e-07
-2.4836e-08
8.43691e-07
-3.34484e-08
8.46849e-07
-3.65663e-08
8.49523e-07
-3.66266e-08
8.51408e-07
-3.44545e-08
8.5254e-07
-3.10916e-08
8.53151e-07
-2.73843e-08
8.53484e-07
-2.37145e-08
8.53746e-07
-2.02136e-08
8.541e-07
-1.69266e-08
8.54676e-07
-1.38462e-08
8.5555e-07
-1.09449e-08
8.56779e-07
-8.21513e-09
8.58398e-07
-5.65015e-09
8.60439e-07
-3.25782e-09
8.62968e-07
-9.98175e-10
2.09111e-09
8.66281e-07
7.28984e-07
-5.71026e-09
7.31438e-07
-2.729e-08
7.34399e-07
-3.64092e-08
7.36618e-07
-3.87852e-08
7.37839e-07
-3.7848e-08
7.37922e-07
-3.45371e-08
7.37136e-07
-3.03056e-08
7.3588e-07
-2.61285e-08
7.34477e-07
-2.23115e-08
7.33157e-07
-1.88939e-08
7.32076e-07
-1.58459e-08
7.31346e-07
-1.31156e-08
7.31033e-07
-1.06318e-08
7.31164e-07
-8.34667e-09
7.31755e-07
-6.24106e-09
7.32817e-07
-4.31933e-09
7.34411e-07
-2.59235e-09
-2.82999e-10
7.36785e-07
6.32221e-07
-9.24715e-10
6.36046e-07
-3.11148e-08
6.38276e-07
-3.86395e-08
6.38781e-07
-3.92896e-08
6.37716e-07
-3.67833e-08
6.35299e-07
-3.212e-08
6.32131e-07
-2.71379e-08
6.28765e-07
-2.27624e-08
6.25549e-07
-1.90953e-08
6.22679e-07
-1.60236e-08
6.20263e-07
-1.34305e-08
6.18359e-07
-1.12108e-08
6.16996e-07
-9.26893e-09
6.16175e-07
-7.52578e-09
6.15875e-07
-5.9417e-09
6.16079e-07
-4.52326e-09
6.16847e-07
-3.36001e-09
-1.88643e-09
6.1845e-07
5.48752e-07
4.8696e-09
5.53264e-07
-3.5627e-08
5.52618e-07
-3.7993e-08
5.49635e-07
-3.63072e-08
5.44855e-07
-3.20025e-08
5.38995e-07
-2.62607e-08
5.32954e-07
-2.1097e-08
5.27304e-07
-1.71117e-08
5.22289e-07
-1.40807e-08
5.17981e-07
-1.17155e-08
5.14376e-07
-9.82578e-09
5.11454e-07
-8.2888e-09
5.09184e-07
-6.99909e-09
5.07541e-07
-5.88297e-09
5.06468e-07
-4.86783e-09
5.05905e-07
-3.96116e-09
5.05895e-07
-3.35001e-09
-2.85025e-09
5.06859e-07
4.87459e-07
1.71644e-10
4.83194e-07
-3.13624e-08
4.73025e-07
-2.78237e-08
4.61856e-07
-2.51385e-08
4.50577e-07
-2.07235e-08
4.39983e-07
-1.56664e-08
4.30665e-07
-1.17791e-08
4.22743e-07
-9.18981e-09
4.16093e-07
-7.43066e-09
4.10533e-07
-6.15582e-09
4.05898e-07
-5.19028e-09
4.0206e-07
-4.45056e-09
3.98943e-07
-3.88196e-09
3.96487e-07
-3.42698e-09
3.94609e-07
-2.98981e-09
3.93224e-07
-2.57671e-09
3.92283e-07
-2.40902e-09
-2.87752e-09
3.9231e-07
4.20439e-07
3.89077e-07
3.61253e-07
3.36115e-07
3.15391e-07
2.99725e-07
2.87946e-07
2.78756e-07
2.71325e-07
2.65169e-07
2.59979e-07
2.55529e-07
2.51647e-07
2.4822e-07
2.4523e-07
2.42653e-07
2.40244e-07
2.37367e-07
1.68552e-08
-1.68552e-08
5.50563e-08
-3.8201e-08
1.00602e-07
-4.55458e-08
1.4764e-07
-4.70382e-08
1.93276e-07
-4.56358e-08
2.35745e-07
-4.24684e-08
2.74011e-07
-3.82665e-08
3.07481e-07
-3.34699e-08
3.35836e-07
-2.83548e-08
3.58927e-07
-2.30912e-08
3.76705e-07
-1.77779e-08
3.89166e-07
-1.24615e-08
3.96341e-07
-7.17461e-09
3.98294e-07
-1.95264e-09
3.95387e-07
2.90662e-09
3.88144e-07
7.24258e-09
3.77212e-07
1.09325e-08
3.63295e-07
1.39166e-08
3.47108e-07
1.61872e-08
3.29269e-07
1.78395e-08
3.10179e-07
1.90894e-08
2.90162e-07
2.00172e-08
2.69582e-07
2.05794e-08
2.48862e-07
2.07205e-08
2.2683e-07
2.20319e-08
2.01471e-07
2.53591e-08
1.75437e-07
2.60344e-08
1.43529e-07
3.19073e-08
1.04667e-07
3.88619e-08
6.62879e-08
3.83795e-08
2.11934e-08
4.50945e-08
-3.67207e-08
5.79141e-08
-1.01138e-07
6.44171e-08
-1.67466e-07
6.63286e-08
-2.41466e-07
7.40001e-08
-3.23999e-07
8.25329e-08
-4.14792e-07
9.07932e-08
-5.07623e-07
9.28303e-08
-6.01392e-07
9.37688e-08
-6.98864e-07
9.74725e-08
-7.97563e-07
9.86994e-08
-8.95844e-07
9.82802e-08
-9.92439e-07
9.65956e-08
-1.08638e-06
9.3942e-08
-1.17695e-06
9.05638e-08
-1.26362e-06
8.66743e-08
-1.34607e-06
8.24549e-08
-1.42413e-06
7.80546e-08
-1.49772e-06
7.35921e-08
-1.56688e-06
6.91576e-08
-1.63169e-06
6.48158e-08
-1.6923e-06
6.061e-08
-1.74887e-06
5.65656e-08
-1.80156e-06
5.26943e-08
-1.85056e-06
4.8997e-08
-1.89603e-06
4.54674e-08
-1.93812e-06
4.2094e-08
-1.97698e-06
3.88617e-08
-2.01274e-06
3.57543e-08
-2.04549e-06
3.27544e-08
-2.07534e-06
2.98445e-08
-2.10235e-06
2.70079e-08
-2.12657e-06
2.42282e-08
-2.14806e-06
2.14898e-08
-2.16684e-06
1.87782e-08
-2.18292e-06
1.608e-08
-2.19631e-06
1.33838e-08
-2.20699e-06
1.06804e-08
-2.21495e-06
7.96177e-09
-2.22017e-06
5.22328e-09
-2.22265e-06
2.48188e-09
-2.22245e-06
-2.03056e-10
-2.21968e-06
-2.77335e-09
-2.2144e-06
-5.27511e-09
-2.20663e-06
-7.77198e-09
-2.1964e-06
-1.02338e-08
-2.18388e-06
-1.25191e-08
-2.16915e-06
-1.47226e-08
-2.15227e-06
-1.68811e-08
-2.13327e-06
-1.90061e-08
-2.11216e-06
-2.11044e-08
-2.08898e-06
-2.31792e-08
-2.06375e-06
-2.52333e-08
-2.03648e-06
-2.72708e-08
-2.00718e-06
-2.92983e-08
-1.97586e-06
-3.13251e-08
-1.94249e-06
-3.33625e-08
-1.90707e-06
-3.5422e-08
-1.86956e-06
-3.75119e-08
-1.82993e-06
-3.96335e-08
-1.78814e-06
-4.17808e-08
-1.7442e-06
-4.3941e-08
-1.69811e-06
-4.60972e-08
-1.64988e-06
-4.82301e-08
-1.59956e-06
-5.03194e-08
-1.54721e-06
-5.23439e-08
-1.49293e-06
-5.42806e-08
-1.43683e-06
-5.61051e-08
-1.37904e-06
-5.77902e-08
-1.31973e-06
-5.93064e-08
-1.25911e-06
-6.06217e-08
-1.19741e-06
-6.17014e-08
-1.1349e-06
-6.25093e-08
-1.07189e-06
-6.30078e-08
-1.00873e-06
-6.31585e-08
-9.45808e-07
-6.29236e-08
-8.83541e-07
-6.22671e-08
-8.22385e-07
-6.11559e-08
-7.62822e-07
-5.95628e-08
-7.05354e-07
-5.74681e-08
-6.50491e-07
-5.4863e-08
-5.98738e-07
-5.1753e-08
-5.50579e-07
-4.81589e-08
-5.06464e-07
-4.41155e-08
-4.66785e-07
-3.96788e-08
-4.31832e-07
-3.4953e-08
-4.01758e-07
-3.00739e-08
-3.76762e-07
-2.49956e-08
-3.57036e-07
-1.97268e-08
-3.41517e-07
-1.55182e-08
-3.30081e-07
-1.14369e-08
-3.26504e-07
-3.57649e-09
-3.21058e-07
-5.44594e-09
-3.20928e-07
-1.2955e-10
-3.30495e-07
9.56636e-09
-3.39987e-07
9.49228e-09
-3.47321e-07
7.33354e-09
-3.56338e-07
9.01744e-09
-3.69697e-07
1.33595e-08
-3.83973e-07
1.42751e-08
-3.98309e-07
1.43361e-08
-4.16522e-07
1.82134e-08
-4.32816e-07
1.62941e-08
-4.49281e-07
1.64647e-08
-4.70633e-07
2.13524e-08
-4.89309e-07
1.86759e-08
-5.08716e-07
1.94065e-08
-5.28825e-07
2.01095e-08
-5.41926e-07
1.31007e-08
-5.56255e-07
1.43291e-08
-5.74765e-07
1.85102e-08
-5.91142e-07
1.63768e-08
-6.02443e-07
1.13013e-08
-6.08997e-07
6.55396e-09
-6.16205e-07
7.20707e-09
-6.20955e-07
4.75057e-09
-6.21788e-07
8.33245e-10
-6.18544e-07
-3.24458e-09
-6.10312e-07
-8.23137e-09
-6.02284e-07
-8.02823e-09
-5.92116e-07
-1.01686e-08
-5.75737e-07
-1.63786e-08
-5.55028e-07
-2.07092e-08
-5.32559e-07
-2.24688e-08
-5.04076e-07
-2.84828e-08
-4.70706e-07
-3.33697e-08
-4.39766e-07
-3.09401e-08
-4.00722e-07
-3.90439e-08
-3.55521e-07
-4.5201e-08
-3.13381e-07
-4.21408e-08
-2.66472e-07
-4.69091e-08
-2.14021e-07
-5.24504e-08
-1.62467e-07
-5.15537e-08
-1.09178e-07
-5.32893e-08
-5.45736e-08
-5.46046e-08
8.25634e-10
-5.53993e-08
5.6473e-08
-5.56473e-08
1.11698e-07
-5.52248e-08
1.65805e-07
-5.41073e-08
2.18256e-07
-5.2451e-08
2.68592e-07
-5.03359e-08
3.16455e-07
-4.78632e-08
3.61594e-07
-4.5139e-08
4.03849e-07
-4.22545e-08
4.43102e-07
-3.92534e-08
4.79188e-07
-3.6086e-08
5.11626e-07
-3.24373e-08
5.39189e-07
-2.75636e-08
5.56724e-07
-1.75351e-08
3.65988e-09
5.53064e-07
3.87438e-08
-5.5599e-08
8.78152e-08
-8.72724e-08
1.32721e-07
-9.04521e-08
1.71845e-07
-8.61618e-08
2.05839e-07
-7.96302e-08
2.35325e-07
-7.19537e-08
2.60651e-07
-6.35924e-08
2.82008e-07
-5.48274e-08
2.99498e-07
-4.58449e-08
3.13182e-07
-3.67753e-08
3.23123e-07
-2.77184e-08
3.29398e-07
-1.87365e-08
3.32127e-07
-9.90375e-09
3.31496e-07
-1.32134e-09
3.27496e-07
6.90627e-09
3.2015e-07
1.45884e-08
3.09478e-07
2.1605e-08
2.9552e-07
2.78742e-08
2.78342e-07
3.33654e-08
2.57949e-07
3.82318e-08
2.34309e-07
4.273e-08
2.07192e-07
4.71343e-08
1.76028e-07
5.17434e-08
1.40216e-07
5.65325e-08
1.00258e-07
6.19901e-08
5.58395e-08
6.97773e-08
3.04069e-09
7.88332e-08
-5.43443e-08
8.92923e-08
-1.18411e-07
1.02928e-07
-1.94043e-07
1.14012e-07
-2.74693e-07
1.25744e-07
-3.56224e-07
1.39445e-07
-4.43355e-07
1.51548e-07
-5.38312e-07
1.61285e-07
-6.35666e-07
1.71354e-07
-7.33256e-07
1.80123e-07
-8.28986e-07
1.86523e-07
-9.25211e-07
1.89056e-07
-1.02008e-06
1.8864e-07
-1.10965e-06
1.87041e-07
-1.19465e-06
1.83694e-07
-1.27507e-06
1.78707e-07
-1.3509e-06
1.72421e-07
-1.42216e-06
1.652e-07
-1.48897e-06
1.57372e-07
-1.55151e-06
1.49215e-07
-1.61e-06
1.40953e-07
-1.66471e-06
1.32757e-07
-1.71587e-06
1.24751e-07
-1.76373e-06
1.17016e-07
-1.80851e-06
1.09599e-07
-1.85042e-06
1.0252e-07
-1.88963e-06
9.57796e-08
-1.9263e-06
8.93656e-08
-1.96056e-06
8.32549e-08
-1.99251e-06
7.74195e-08
-2.02225e-06
7.18286e-08
-2.04984e-06
6.64505e-08
-2.07534e-06
6.12542e-08
-2.09879e-06
5.621e-08
-2.12024e-06
5.12908e-08
-2.1397e-06
4.64714e-08
-2.1572e-06
4.17296e-08
-2.17276e-06
3.70461e-08
-2.18639e-06
3.24046e-08
-2.1981e-06
2.77923e-08
-2.20791e-06
2.32002e-08
-2.21586e-06
1.86233e-08
-2.22196e-06
1.40626e-08
-2.22626e-06
9.52642e-09
-2.22881e-06
5.02998e-09
-2.2296e-06
5.8459e-10
-2.22854e-06
-3.8323e-09
-2.22559e-06
-8.22274e-09
-2.22077e-06
-1.25908e-08
-2.21409e-06
-1.69197e-08
-2.2054e-06
-2.12095e-08
-2.19463e-06
-2.54887e-08
-2.18176e-06
-2.97518e-08
-2.16677e-06
-3.39954e-08
-2.14966e-06
-3.82181e-08
-2.13042e-06
-4.24194e-08
-2.10905e-06
-4.66006e-08
-2.08555e-06
-5.07655e-08
-2.05993e-06
-5.49212e-08
-2.03218e-06
-5.90784e-08
-2.00229e-06
-6.32506e-08
-1.97026e-06
-6.74513e-08
-1.93608e-06
-7.169e-08
-1.89975e-06
-7.59686e-08
-1.86125e-06
-8.02785e-08
-1.82059e-06
-8.46015e-08
-1.77777e-06
-8.89115e-08
-1.73283e-06
-9.31769e-08
-1.68578e-06
-9.73624e-08
-1.6367e-06
-1.0143e-07
-1.58564e-06
-1.05339e-07
-1.5327e-06
-1.09044e-07
-1.47799e-06
-1.12498e-07
-1.42165e-06
-1.15649e-07
-1.36383e-06
-1.18439e-07
-1.30473e-06
-1.20807e-07
-1.24454e-06
-1.22691e-07
-1.18353e-06
-1.24023e-07
-1.12195e-06
-1.24736e-07
-1.06011e-06
-1.24762e-07
-9.98344e-07
-1.24036e-07
-9.37002e-07
-1.22497e-07
-8.76474e-07
-1.20091e-07
-8.17166e-07
-1.16776e-07
-7.59504e-07
-1.12525e-07
-7.03925e-07
-1.07333e-07
-6.50866e-07
-1.01217e-07
-6.00757e-07
-9.42247e-08
-5.54003e-07
-8.64329e-08
-5.10987e-07
-7.79683e-08
-4.72078e-07
-6.8983e-08
-4.37547e-07
-5.95271e-08
-4.07578e-07
-4.96955e-08
-3.82874e-07
-4.02219e-08
-3.63583e-07
-3.07284e-08
-3.47627e-07
-1.95325e-08
-3.39402e-07
-1.36703e-08
-3.34703e-07
-4.82843e-09
-3.3125e-07
6.1127e-09
-3.34188e-07
1.24304e-08
-3.42788e-07
1.59337e-08
-3.5314e-07
1.9369e-08
-3.64621e-07
2.48411e-08
-3.77998e-07
2.76519e-08
-3.9342e-07
2.97578e-08
-4.10033e-07
3.48271e-08
-4.29465e-07
3.57253e-08
-4.48899e-07
3.58985e-08
-4.66873e-07
3.93264e-08
-4.86014e-07
3.78174e-08
-5.04823e-07
3.82152e-08
-5.22928e-07
3.82143e-08
-5.42724e-07
3.28972e-08
-5.5933e-07
3.0935e-08
-5.72857e-07
3.20366e-08
-5.8533e-07
2.88502e-08
-5.9661e-07
2.25807e-08
-6.06617e-07
1.65616e-08
-6.12349e-07
1.29387e-08
-6.1548e-07
7.88191e-09
-6.16213e-07
1.56565e-09
-6.13855e-07
-5.60193e-09
-6.09309e-07
-1.27778e-08
-6.00125e-07
-1.72119e-08
-5.87067e-07
-2.32266e-08
-5.7124e-07
-3.22061e-08
-5.51711e-07
-4.02375e-08
-5.27069e-07
-4.71108e-08
-4.99474e-07
-5.60782e-08
-4.69488e-07
-6.33554e-08
-4.32742e-07
-6.76864e-08
-3.93766e-07
-7.80197e-08
-3.53794e-07
-8.51729e-08
-3.07214e-07
-8.87215e-08
-2.57551e-07
-9.65722e-08
-2.08082e-07
-1.01919e-07
-1.55655e-07
-1.03981e-07
-1.01685e-07
-1.07259e-07
-4.63738e-08
-1.09916e-07
9.74989e-09
-1.11523e-07
6.60488e-08
-1.11946e-07
1.21962e-07
-1.11138e-07
1.76988e-07
-1.09134e-07
2.30598e-07
-1.0606e-07
2.82331e-07
-1.0207e-07
3.3182e-07
-9.73514e-08
3.78788e-07
-9.21075e-08
4.23048e-07
-8.65145e-08
4.64457e-07
-8.06625e-08
5.0284e-07
-7.44691e-08
5.3783e-07
-6.74274e-08
5.68656e-07
-5.83896e-08
5.94043e-07
-4.29212e-08
-1.54209e-08
6.13123e-07
4.23047e-08
-9.79037e-08
8.64296e-08
-1.31397e-07
1.2289e-07
-1.26912e-07
1.52466e-07
-1.15738e-07
1.7674e-07
-1.03905e-07
1.96729e-07
-9.19426e-08
2.13019e-07
-7.98825e-08
2.25948e-07
-6.77564e-08
2.35706e-07
-5.56029e-08
2.42397e-07
-4.34657e-08
2.46069e-07
-3.13907e-08
2.46719e-07
-1.93866e-08
2.44371e-07
-7.55552e-09
2.39011e-07
4.03834e-09
2.30626e-07
1.52915e-08
2.19096e-07
2.61183e-08
2.04215e-07
3.64858e-08
1.8572e-07
4.63692e-08
1.63247e-07
5.5839e-08
1.36457e-07
6.50216e-08
1.05057e-07
7.413e-08
6.868e-08
8.3511e-08
2.69632e-08
9.34602e-08
-2.05875e-08
1.04083e-07
-7.41687e-08
1.15571e-07
-1.32964e-07
1.28573e-07
-1.97375e-07
1.43244e-07
-2.67016e-07
1.58933e-07
-3.39897e-07
1.75809e-07
-4.18116e-07
1.92231e-07
-4.99989e-07
2.07618e-07
-5.82505e-07
2.2196e-07
-6.65784e-07
2.34827e-07
-7.50023e-07
2.45525e-07
-8.32536e-07
2.53867e-07
-9.1189e-07
2.59476e-07
-9.87372e-07
2.62005e-07
-1.05961e-06
2.61297e-07
-1.12882e-06
2.57847e-07
-1.19417e-06
2.52391e-07
-1.25575e-06
2.45278e-07
-1.3139e-06
2.3685e-07
-1.36894e-06
2.2746e-07
-1.42117e-06
2.17438e-07
-1.47087e-06
2.07069e-07
-1.51824e-06
1.96588e-07
-1.56347e-06
1.86182e-07
-1.6067e-06
1.75983e-07
-1.64803e-06
1.66086e-07
-1.68756e-06
1.56545e-07
-1.72535e-06
1.47387e-07
-1.76145e-06
1.38618e-07
-1.79589e-06
1.30227e-07
-1.82872e-06
1.22191e-07
-1.85995e-06
1.14481e-07
-1.88959e-06
1.07063e-07
-1.91766e-06
9.99015e-08
-1.94417e-06
9.29619e-08
-1.96913e-06
8.62096e-08
-1.99253e-06
7.96125e-08
-2.01438e-06
7.31408e-08
-2.03468e-06
6.67675e-08
-2.05342e-06
6.04689e-08
-2.07059e-06
5.42244e-08
-2.08621e-06
4.80167e-08
-2.10025e-06
4.18322e-08
-2.11271e-06
3.56607e-08
-2.12358e-06
2.94958e-08
-2.13285e-06
2.33339e-08
-2.1405e-06
1.71747e-08
-2.14649e-06
1.10159e-08
-2.15075e-06
4.84712e-09
-2.15323e-06
-1.34632e-09
-2.15389e-06
-7.56644e-09
-2.15268e-06
-1.37991e-08
-2.14957e-06
-2.00322e-08
-2.14451e-06
-2.62733e-08
-2.13746e-06
-3.25303e-08
-2.12842e-06
-3.88006e-08
-2.11733e-06
-4.50777e-08
-2.10419e-06
-5.13566e-08
-2.08898e-06
-5.76341e-08
-2.07167e-06
-6.39091e-08
-2.05225e-06
-7.01829e-08
-2.03071e-06
-7.64603e-08
-2.00704e-06
-8.27496e-08
-1.98123e-06
-8.90613e-08
-1.95328e-06
-9.5406e-08
-1.92318e-06
-1.01791e-07
-1.89093e-06
-1.08214e-07
-1.85654e-06
-1.14666e-07
-1.82002e-06
-1.21123e-07
-1.78138e-06
-1.27555e-07
-1.74063e-06
-1.33921e-07
-1.69782e-06
-1.40175e-07
-1.65298e-06
-1.46267e-07
-1.60618e-06
-1.52141e-07
-1.55749e-06
-1.57737e-07
-1.507e-06
-1.6299e-07
-1.45482e-06
-1.67828e-07
-1.40108e-06
-1.72175e-07
-1.34594e-06
-1.75949e-07
-1.28957e-06
-1.79062e-07
-1.23217e-06
-1.81425e-07
-1.17396e-06
-1.82946e-07
-1.11519e-06
-1.83531e-07
-1.05613e-06
-1.83091e-07
-9.97093e-07
-1.81538e-07
-9.38387e-07
-1.78797e-07
-8.8036e-07
-1.74803e-07
-8.23373e-07
-1.69511e-07
-7.67805e-07
-1.62901e-07
-7.14041e-07
-1.54981e-07
-6.62471e-07
-1.45795e-07
-6.1348e-07
-1.35425e-07
-5.67451e-07
-1.23996e-07
-5.24771e-07
-1.11663e-07
-4.85753e-07
-9.85454e-08
-4.50654e-07
-8.47945e-08
-4.20048e-07
-7.08274e-08
-3.94052e-07
-5.67247e-08
-3.71641e-07
-4.19441e-08
-3.56626e-07
-2.86847e-08
-3.4481e-07
-1.66441e-08
-3.34766e-07
-3.93182e-09
-3.31197e-07
8.86152e-09
-3.34344e-07
1.90803e-08
-3.41453e-07
2.64786e-08
-3.49559e-07
3.29463e-08
-3.60518e-07
3.86109e-08
-3.74301e-07
4.35413e-08
-3.88324e-07
4.88505e-08
-4.0576e-07
5.31612e-08
-4.25261e-07
5.5399e-08
-4.42672e-07
5.6738e-08
-4.60951e-07
5.60964e-08
-4.78375e-07
5.56387e-08
-4.95439e-07
5.52788e-08
-5.15242e-07
5.26995e-08
-5.33417e-07
4.91104e-08
-5.47255e-07
4.58749e-08
-5.59377e-07
4.09721e-08
-5.70857e-07
3.40608e-08
-5.8086e-07
2.65643e-08
-5.87446e-07
1.9525e-08
-5.91114e-07
1.15495e-08
-5.92215e-07
2.6662e-09
-5.90893e-07
-6.92365e-09
-5.86999e-07
-1.66719e-08
-5.78628e-07
-2.55829e-08
-5.66089e-07
-3.57648e-08
-5.50609e-07
-4.7686e-08
-5.31588e-07
-5.9259e-08
-5.08214e-07
-7.04852e-08
-4.81885e-07
-8.24072e-08
-4.52241e-07
-9.29991e-08
-4.16602e-07
-1.03325e-07
-3.79113e-07
-1.15509e-07
-3.39701e-07
-1.24585e-07
-2.94512e-07
-1.3391e-07
-2.46655e-07
-1.44429e-07
-1.98034e-07
-1.5054e-07
-1.46594e-07
-1.55421e-07
-9.33127e-08
-1.60541e-07
-3.86836e-08
-1.64545e-07
1.67821e-08
-1.66989e-07
7.2513e-08
-1.67677e-07
1.27944e-07
-1.66569e-07
1.8254e-07
-1.6373e-07
2.35781e-07
-1.59302e-07
2.87214e-07
-1.53502e-07
3.36468e-07
-1.46605e-07
3.83266e-07
-1.38906e-07
4.27417e-07
-1.30665e-07
4.68787e-07
-1.22033e-07
5.07245e-07
-1.12927e-07
5.42594e-07
-1.02777e-07
5.74488e-07
-9.0283e-08
6.03066e-07
-7.14995e-08
-4.21569e-08
6.29802e-07
3.60301e-08
-1.33934e-07
6.95044e-08
-1.64872e-07
9.55507e-08
-1.52958e-07
1.15683e-07
-1.3587e-07
1.31505e-07
-1.19727e-07
1.43867e-07
-1.04304e-07
1.53212e-07
-8.92272e-08
1.59778e-07
-7.43225e-08
1.63687e-07
-5.9512e-08
1.64987e-07
-4.4766e-08
1.63637e-07
-3.00405e-08
1.59584e-07
-1.5334e-08
1.52742e-07
-7.12742e-10
1.42973e-07
1.38068e-08
1.30128e-07
2.81367e-08
1.13981e-07
4.22656e-08
9.42605e-08
5.62059e-08
7.06277e-08
7.00021e-08
4.27477e-08
8.37191e-08
1.02956e-08
9.74736e-08
-2.7032e-08
1.11458e-07
-6.93842e-08
1.25863e-07
-1.16792e-07
1.40868e-07
-1.69307e-07
1.56598e-07
-2.26886e-07
1.7315e-07
-2.88971e-07
1.90658e-07
-3.5475e-07
2.09023e-07
-4.23575e-07
2.27758e-07
-4.941e-07
2.46334e-07
-5.65747e-07
2.63877e-07
-6.37794e-07
2.79665e-07
-7.09133e-07
2.933e-07
-7.78738e-07
3.04431e-07
-8.45903e-07
3.12691e-07
-9.09953e-07
3.17916e-07
-9.70552e-07
3.20076e-07
-1.02775e-06
3.19202e-07
-1.08198e-06
3.15526e-07
-1.13367e-06
3.09542e-07
-1.18304e-06
3.01756e-07
-1.23033e-06
2.92571e-07
-1.27583e-06
2.82344e-07
-1.31976e-06
2.71395e-07
-1.36232e-06
2.60003e-07
-1.40366e-06
2.48399e-07
-1.44384e-06
2.36774e-07
-1.48293e-06
2.25271e-07
-1.52094e-06
2.13997e-07
-1.55788e-06
2.03023e-07
-1.59373e-06
1.92392e-07
-1.62846e-06
1.82123e-07
-1.66206e-06
1.72218e-07
-1.6945e-06
1.62665e-07
-1.72575e-06
1.53443e-07
-1.7558e-06
1.44524e-07
-1.78461e-06
1.35876e-07
-1.81217e-06
1.27466e-07
-1.83847e-06
1.1926e-07
-1.86349e-06
1.11224e-07
-1.8872e-06
1.03328e-07
-1.9096e-06
9.55416e-08
-1.93067e-06
8.78374e-08
-1.9504e-06
8.01911e-08
-1.96875e-06
7.25812e-08
-1.98572e-06
6.49888e-08
-2.00129e-06
5.73982e-08
-2.01543e-06
4.97963e-08
-2.0281e-06
4.21726e-08
-2.03929e-06
3.45185e-08
-2.04894e-06
2.68267e-08
-2.05701e-06
1.90886e-08
-2.06346e-06
1.12914e-08
-2.06823e-06
3.42327e-09
-2.07127e-06
-4.51856e-09
-2.07255e-06
-1.25181e-08
-2.07203e-06
-2.05591e-08
-2.06966e-06
-2.8641e-08
-2.06542e-06
-3.67709e-08
-2.05927e-06
-4.49482e-08
-2.05118e-06
-5.31657e-08
-2.04112e-06
-6.1417e-08
-2.02906e-06
-6.9697e-08
-2.01497e-06
-7.80022e-08
-1.99882e-06
-8.63314e-08
-1.98059e-06
-9.46863e-08
-1.96027e-06
-1.03071e-07
-1.93784e-06
-1.11492e-07
-1.91329e-06
-1.19954e-07
-1.88662e-06
-1.28461e-07
-1.85783e-06
-1.37006e-07
-1.82692e-06
-1.45576e-07
-1.7939e-06
-1.54145e-07
-1.75878e-06
-1.62676e-07
-1.72158e-06
-1.71123e-07
-1.68232e-06
-1.79432e-07
-1.64104e-06
-1.87543e-07
-1.5978e-06
-1.95389e-07
-1.55264e-06
-2.02896e-07
-1.50564e-06
-2.09985e-07
-1.4569e-06
-2.16568e-07
-1.40653e-06
-2.22552e-07
-1.35464e-06
-2.27835e-07
-1.30139e-06
-2.32311e-07
-1.24695e-06
-2.3587e-07
-1.1915e-06
-2.38395e-07
-1.13525e-06
-2.39773e-07
-1.07846e-06
-2.39887e-07
-1.02137e-06
-2.38629e-07
-9.64267e-07
-2.35898e-07
-9.07463e-07
-2.31607e-07
-8.51283e-07
-2.25691e-07
-7.96074e-07
-2.18109e-07
-7.42199e-07
-2.08856e-07
-6.90033e-07
-1.97961e-07
-6.39959e-07
-1.85499e-07