/*--------------------------------*- C++ -*----------------------------------*\
  =========                 |
  \\      /  F ield         | OpenFOAM: The Open Source CFD Toolbox
   \\    /   O peration     | Website:  https://openfoam.org
    \\  /    A nd           | Version:  9
     \\/     M anipulation  |
\*---------------------------------------------------------------------------*/
FoamFile
{
    format      ascii;
    class       volVectorField;
    location    "0.18";
    object      U;
}
// * * * * * * * * * * * * * * * * * * * * * * * * * * * * * * * * * * * * * //

dimensions      [0 1 -1 0 0 0 0];

internalField   nonuniform List<vector> 
12225
(
(0.928048 -0.322569 0)
(0.894247 -0.0991729 0)
(0.804559 -0.0054511 0)
(0.712606 0.0106382 0)
(0.651599 0.00860931 0)
(0.613679 0.00543089 0)
(0.587498 0.00363694 0)
(0.568065 0.00276348 0)
(0.553337 0.00223656 0)
(0.54228 0.00177132 0)
(0.53458 0.00125174 0)
(0.530507 0.000590323 0)
(0.530895 -0.000294883 0)
(0.537063 -0.00162399 0)
(0.551055 -0.00393803 0)
(0.580211 -0.00868094 0)
(0.643641 -0.0234865 0)
(0.897556 -0.0640993 0)
(1.02829 0.0742691 0)
(1.00882 0.0627039 0)
(0.977015 0.033351 0)
(0.93787 0.0227174 0)
(0.903171 0.0173171 0)
(0.875269 0.0128274 0)
(0.853158 0.00955459 0)
(0.836256 0.00736083 0)
(0.823924 0.00572386 0)
(0.815549 0.00423329 0)
(0.810966 0.00261549 0)
(0.810584 0.000596919 0)
(0.815379 -0.00216505 0)
(0.82749 -0.00633308 0)
(0.849392 -0.0136574 0)
(0.891135 -0.0276216 0)
(0.952482 -0.0625388 0)
(1.20376 -0.136186 0)
(1.0022 0.0244951 0)
(1.00468 0.0342222 0)
(1.00535 0.0301145 0)
(0.99266 0.0267669 0)
(0.974881 0.0224302 0)
(0.956842 0.017663 0)
(0.940243 0.0137378 0)
(0.926235 0.0107457 0)
(0.915189 0.0082446 0)
(0.906994 0.00581506 0)
(0.901614 0.00310137 0)
(0.899329 -0.000312687 0)
(0.900719 -0.00504286 0)
(0.907208 -0.0121486 0)
(0.91994 -0.0242176 0)
(0.943825 -0.0454796 0)
(0.976986 -0.0937478 0)
(1.04793 -0.179097 0)
(0.999661 0.00571602 0)
(1.00541 0.0245221 0)
(1.01437 0.0295051 0)
(1.01231 0.0290381 0)
(1.00416 0.0259002 0)
(0.99353 0.0216267 0)
(0.982106 0.0176249 0)
(0.9714 0.0142254 0)
(0.962232 0.0111651 0)
(0.954838 0.00808609 0)
(0.949329 0.00460822 0)
(0.94592 0.000238289 0)
(0.944939 -0.00579145 0)
(0.947094 -0.0147347 0)
(0.952477 -0.0292855 0)
(0.962263 -0.0535257 0)
(0.972052 -0.0993524 0)
(0.974559 -0.171597 0)
(1.00054 0.0039795 0)
(1.00661 0.0223707 0)
(1.01711 0.0288255 0)
(1.02005 0.0296541 0)
(1.01782 0.0277533 0)
(1.01259 0.0243166 0)
(1.00556 0.0206286 0)
(0.998111 0.0171711 0)
(0.991158 0.0138432 0)
(0.985108 0.0103717 0)
(0.980161 0.00639391 0)
(0.976496 0.00139581 0)
(0.974242 -0.00543254 0)
(0.97356 -0.0153436 0)
(0.973838 -0.0306785 0)
(0.974246 -0.0545252 0)
(0.969389 -0.094024 0)
(0.944826 -0.149346 0)
(1.00099 0.00445347 0)
(1.00683 0.0203091 0)
(1.01724 0.0270418 0)
(1.02273 0.0289815 0)
(1.02418 0.0282551 0)
(1.02274 0.0257536 0)
(1.01918 0.0226072 0)
(1.01458 0.0193534 0)
(1.00977 0.0160076 0)
(1.0052 0.01238 0)
(1.00109 0.00815261 0)
(0.997551 0.00284078 0)
(0.994557 -0.00431295 0)
(0.991875 -0.0144124 0)
(0.988481 -0.0292286 0)
(0.982581 -0.0507402 0)
(0.968942 -0.0825569 0)
(0.935199 -0.12154 0)
(1.00107 0.00393984 0)
(1.00657 0.0175901 0)
(1.01637 0.0245961 0)
(1.02308 0.0274766 0)
(1.02674 0.0277543 0)
(1.02788 0.0261584 0)
(1.02692 0.0236537 0)
(1.02466 0.0207696 0)
(1.02175 0.0175961 0)
(1.01858 0.0140161 0)
(1.01535 0.00977122 0)
(1.01211 0.00444501 0)
(1.00869 -0.0025991 0)
(1.0046 -0.012226 0)
(0.99864 -0.025597 0)
(0.988734 -0.0437231 0)
(0.97051 -0.0678093 0)
(0.935631 -0.0928062 0)
(1.00112 0.0029253 0)
(1.0062 0.0147883 0)
(1.01518 0.0218999 0)
(1.02231 0.0254504 0)
(1.0272 0.0265335 0)
(1.03003 0.0257548 0)
(1.03097 0.0239121 0)
(1.03052 0.0214928 0)
(1.02919 0.0186315 0)
(1.02725 0.0152721 0)
(1.02486 0.011224 0)
(1.02197 0.00616465 0)
(1.01832 -0.000381992 0)
(1.01332 -0.00900147 0)
(1.00574 -0.0203162 0)
(0.993639 -0.0345975 0)
(0.973795 -0.0515677 0)
(0.941341 -0.0655203 0)
(1.0012 0.00182383 0)
(1.00584 0.0121326 0)
(1.01391 0.0191208 0)
(1.02099 0.0230885 0)
(1.0265 0.0247903 0)
(1.03038 0.0247152 0)
(1.03263 0.023507 0)
(1.03354 0.0215984 0)
(1.03344 0.0191483 0)
(1.03253 0.0161522 0)
(1.03086 0.012491 0)
(1.02835 0.0079485 0)
(1.02466 0.00222344 0)
(1.01918 -0.00499577 0)
(1.01081 -0.0139116 0)
(0.997924 -0.0242901 0)
(0.978446 -0.0350784 0)
(0.949847 -0.0407088 0)
(1.00127 0.000669203 0)
(1.00547 0.00957596 0)
(1.01263 0.0162885 0)
(1.01937 0.0204775 0)
(1.02506 0.0226303 0)
(1.0295 0.0231305 0)
(1.03258 0.0224906 0)
(1.03444 0.0210872 0)
(1.03525 0.0190922 0)
(1.03513 0.0165456 0)
(1.03406 0.0133995 0)
(1.0319 0.0095451 0)
(1.02832 0.0048483 0)
(1.02275 -0.000769232 0)
(1.0143 -0.00720522 0)
(1.00173 -0.0139337 0)
(0.983922 -0.019609 0)
(0.959658 -0.019079 0)
(1.00134 -0.000169228 0)
(1.00506 0.00744861 0)
(1.01128 0.0137961 0)
(1.01743 0.0180691 0)
(1.02291 0.0205576 0)
(1.02744 0.0215566 0)
(1.03088 0.0214689 0)
(1.03322 0.0206171 0)
(1.03455 0.0191766 0)
(1.03489 0.0172232 0)
(1.03417 0.0147714 0)
(1.03224 0.0118074 0)
(1.0288 0.00833315 0)
(1.02337 0.00444073 0)
(1.01531 0.000416467 0)
(1.00379 -0.00309356 0)
(0.988449 -0.00473396 0)
(0.968862 2.79733e-05 0)
(1.00145 -0.0019947 0)
(1.00504 0.00485837 0)
(1.01061 0.0108438 0)
(1.01626 0.0150506 0)
(1.02149 0.0176639 0)
(1.026 0.0189262 0)
(1.02959 0.0191706 0)
(1.03219 0.0186844 0)
(1.03379 0.0176499 0)
(1.03435 0.0161771 0)
(1.03378 0.0143383 0)
(1.03192 0.0122014 0)
(1.02849 0.00987286 0)
(1.02315 0.00755776 0)
(1.01546 0.00563034 0)
(1.00498 0.00473492 0)
(0.991751 0.00605311 0)
(0.975921 0.013609 0)
(1.00124 -0.0026153 0)
(1.00446 0.00327426 0)
(1.00949 0.00897661 0)
(1.01464 0.0131434 0)
(1.01959 0.0159255 0)
(1.02401 0.0175247 0)
(1.02769 0.0182138 0)
(1.03053 0.0182439 0)
(1.03245 0.0177947 0)
(1.03339 0.016996 0)
(1.03325 0.0159569 0)
(1.03187 0.014795 0)
(1.02904 0.0136726 0)
(1.02452 0.0128367 0)
(1.01806 0.0126607 0)
(1.00944 0.0136862 0)
(0.998946 0.0169412 0)
(0.986138 0.0266213 0)
(1.00106 -0.0037765 0)
(1.00397 0.000954346 0)
(1.00863 0.00637635 0)
(1.01342 0.0104001 0)
(1.01819 0.0132186 0)
(1.02262 0.0150233 0)
(1.02648 0.0160432 0)
(1.02964 0.0164999 0)
(1.03199 0.0165717 0)
(1.03344 0.0164075 0)
(1.03386 0.0161494 0)
(1.03313 0.0159566 0)
(1.0311 0.01603 0)
(1.02762 0.0166339 0)
(1.02255 0.0181107 0)
(1.01583 0.0208867 0)
(1.00787 0.0258571 0)
(0.997957 0.0377524 0)
(1.00083 -0.00490224 0)
(1.00337 -0.00162135 0)
(1.00761 0.00349995 0)
(1.01196 0.00730362 0)
(1.0164 0.0100749 0)
(1.02065 0.0120271 0)
(1.02448 0.0133621 0)
(1.02775 0.0142766 0)
(1.03031 0.0149451 0)
(1.03208 0.0155282 0)
(1.03293 0.0161888 0)
(1.03276 0.0171074 0)
(1.03149 0.0184948 0)
(1.02905 0.0205988 0)
(1.0254 0.0237012 0)
(1.02058 0.0281072 0)
(1.01502 0.0346419 0)
(1.00806 0.0484978 0)
(1.00056 -0.00593944 0)
(1.00266 -0.00443294 0)
(1.00635 0.000352922 0)
(1.01018 0.00387422 0)
(1.01417 0.00651133 0)
(1.01808 0.00852392 0)
(1.02172 0.0101078 0)
(1.02492 0.0114411 0)
(1.02756 0.0126903 0)
(1.02953 0.0140167 0)
(1.03076 0.0155861 0)
(1.03116 0.0175762 0)
(1.03072 0.0201797 0)
(1.02941 0.0236017 0)
(1.02729 0.0280478 0)
(1.02444 0.0337109 0)
(1.02117 0.0413881 0)
(1.01731 0.0567027 0)
(1.00029 -0.00680491 0)
(1.00189 -0.00726961 0)
(1.0049 -0.0029252 0)
(1.00816 0.000229178 0)
(1.01166 0.00263806 0)
(1.01518 0.00461543 0)
(1.01856 0.00636263 0)
(1.02164 0.00804416 0)
(1.02433 0.00981235 0)
(1.02652 0.0118148 0)
(1.02816 0.0142003 0)
(1.02922 0.0171209 0)
(1.02971 0.02073 0)
(1.02965 0.0251752 0)
(1.02912 0.0305844 0)
(1.02825 0.0370594 0)
(1.02705 0.0453789 0)
(1.02636 0.0613524 0)
(1.00004 -0.00738918 0)
(1.00115 -0.00982931 0)
(1.00337 -0.00614803 0)
(1.00609 -0.00352218 0)
(1.00914 -0.00148732 0)
(1.01233 0.000315471 0)
(1.01551 0.0020885 0)
(1.01855 0.00397785 0)
(1.02136 0.00611126 0)
(1.02386 0.00860725 0)
(1.02603 0.0115801 0)
(1.02786 0.0151399 0)
(1.02938 0.0193894 0)
(1.03064 0.0244174 0)
(1.03172 0.0302872 0)
(1.03275 0.0370375 0)
(1.03334 0.0454071 0)
(1.03577 0.0609913 0)
(0.999906 -0.00758488 0)
(1.0006 -0.0118291 0)
(1.00198 -0.00928739 0)
(1.00427 -0.00753857 0)
(1.00705 -0.00615701 0)
(1.01011 -0.00478276 0)
(1.01328 -0.00323699 0)
(1.01645 -0.00140829 0)
(1.01953 0.000791191 0)
(1.02249 0.00343547 0)
(1.0253 0.0065923 0)
(1.02797 0.0103237 0)
(1.03055 0.0146826 0)
(1.03307 0.0197081 0)
(1.03564 0.025419 0)
(1.03837 0.0318138 0)
(1.04046 0.039556 0)
(1.0458 0.0536594 0)
(0.999753 -0.00817804 0)
(1.00017 -0.0126553 0)
(1.00117 -0.0115856 0)
(1.00343 -0.010999 0)
(1.00631 -0.0104383 0)
(1.00953 -0.00962659 0)
(1.01293 -0.00844378 0)
(1.01638 -0.00683229 0)
(1.01981 -0.00475597 0)
(1.02319 -0.00219077 0)
(1.02652 0.000885705 0)
(1.02981 0.00449143 0)
(1.0331 0.00864063 0)
(1.03644 0.0133416 0)
(1.03994 0.0185902 0)
(1.04371 0.024365 0)
(1.04675 0.0311579 0)
(1.05339 0.0430511 0)
(0.999523 -0.0081462 0)
(0.999798 -0.0131108 0)
(1.00083 -0.0135404 0)
(1.00334 -0.0140303 0)
(1.00648 -0.0142007 0)
(1.00995 -0.0138805 0)
(1.01356 -0.0130218 0)
(1.01719 -0.0116298 0)
(1.02079 -0.009725 0)
(1.02434 -0.00732434 0)
(1.02786 -0.00443631 0)
(1.03139 -0.00107226 0)
(1.03496 0.00275766 0)
(1.03862 0.00704078 0)
(1.04248 0.0117632 0)
(1.04668 0.0169015 0)
(1.05013 0.0228266 0)
(1.05717 0.032891 0)
(0.999312 -0.00790233 0)
(0.999505 -0.0135194 0)
(1.00081 -0.0154629 0)
(1.00373 -0.0169469 0)
(1.0072 -0.0177358 0)
(1.01088 -0.0177847 0)
(1.01458 -0.0171345 0)
(1.0182 -0.0158708 0)
(1.0217 -0.0140735 0)
(1.02512 -0.0118002 0)
(1.02849 -0.00909038 0)
(1.03188 -0.00597204 0)
(1.03533 -0.00246757 0)
(1.03892 0.00139871 0)
(1.04273 0.0056027 0)
(1.04694 0.0101199 0)
(1.05046 0.0152206 0)
(1.05737 0.0236063 0)
(0.999081 -0.00751485 0)
(0.999187 -0.0140554 0)
(1.00097 -0.017474 0)
(1.0044 -0.0197886 0)
(1.00816 -0.0210185 0)
(1.01193 -0.0212439 0)
(1.01549 -0.0206174 0)
(1.01877 -0.0193317 0)
(1.02181 -0.0175347 0)
(1.0247 -0.0153156 0)
(1.02753 -0.0127303 0)
(1.03039 -0.00982254 0)
(1.03335 -0.00662154 0)
(1.03648 -0.00314866 0)
(1.0399 0.0005719 0)
(1.04377 0.00451152 0)
(1.04711 0.00885602 0)
(1.05347 0.0157531 0)
(0.998813 -0.00697382 0)
(0.998754 -0.0148843 0)
(1.00121 -0.0196522 0)
(1.00516 -0.0225379 0)
(1.00904 -0.0239697 0)
(1.01257 -0.0241297 0)
(1.01559 -0.0233022 0)
(1.01807 -0.0218167 0)
(1.02015 -0.0198977 0)
(1.02203 -0.0176605 0)
(1.02386 -0.0151647 0)
(1.02576 -0.0124447 0)
(1.02785 -0.0095316 0)
(1.03019 -0.00644372 0)
(1.03289 -0.0031954 0)
(1.03613 0.000189518 0)
(1.03907 0.00382564 0)
(1.04458 0.00941176 0)
(0.998413 -0.00592063 0)
(0.998037 -0.0158908 0)
(1.00142 -0.0219154 0)
(1.00574 -0.0250685 0)
(1.00929 -0.0263961 0)
(1.012 -0.0261953 0)
(1.01378 -0.0249354 0)
(1.01476 -0.0231022 0)
(1.01525 -0.0209697 0)
(1.01555 -0.0186644 0)
(1.01587 -0.0162499 0)
(1.01639 -0.0137343 0)
(1.01723 -0.011125 0)
(1.01846 -0.00843293 0)
(1.02017 -0.00566436 0)
(1.02254 -0.00283738 0)
(1.02491 0.00011008 0)
(1.02939 0.00452405 0)
(0.997365 -0.0033234 0)
(0.996572 -0.0163595 0)
(1.00132 -0.0238 0)
(1.00562 -0.0270506 0)
(1.00791 -0.0279506 0)
(1.00871 -0.0270732 0)
(1.00816 -0.0251849 0)
(1.00666 -0.0229218 0)
(1.00474 -0.0205719 0)
(1.00281 -0.0182337 0)
(1.00113 -0.0159378 0)
(0.999848 -0.0136832 0)
(0.999116 -0.0114318 0)
(0.998974 -0.00917421 0)
(0.999482 -0.00690742 0)
(1.00079 -0.00464895 0)
(1.00243 -0.00239222 0)
(1.00581 0.000934959 0)
(0.995059 -0.00119967 0)
(0.993904 -0.0167716 0)
(1.00019 -0.0248113 0)
(1.00333 -0.0279345 0)
(1.00258 -0.0281009 0)
(0.999594 -0.0262697 0)
(0.995063 -0.0236644 0)
(0.989771 -0.021026 0)
(0.98448 -0.0185725 0)
(0.979638 -0.0163295 0)
(0.975455 -0.0142761 0)
(0.972043 -0.012374 0)
(0.969457 -0.0105616 0)
(0.967739 -0.0087963 0)
(0.966872 -0.00706271 0)
(0.966961 -0.00537852 0)
(0.967721 -0.00381262 0)
(0.970004 -0.00156204 0)
(0.994689 -0.013099 0)
(0.993055 -0.0248173 0)
(0.997336 -0.0267697 0)
(0.995079 -0.0275851 0)
(0.987482 -0.0264003 0)
(0.977515 -0.0234397 0)
(0.966579 -0.0201891 0)
(0.955848 -0.0173718 0)
(0.946128 -0.0150379 0)
(0.937698 -0.0130832 0)
(0.930563 -0.0114188 0)
(0.924683 -0.00996894 0)
(0.919988 -0.00867114 0)
(0.916473 -0.00745084 0)
(0.91404 -0.00626824 0)
(0.912708 -0.00514176 0)
(0.912353 -0.00423541 0)
(0.913601 -0.00312522 0)
(1.01551 -0.0637526 0)
(1.00787 -0.0613119 0)
(0.991812 -0.0370352 0)
(0.968761 -0.0271092 0)
(0.944586 -0.0227688 0)
(0.921902 -0.0187949 0)
(0.901319 -0.0152831 0)
(0.883404 -0.0126024 0)
(0.868316 -0.0106078 0)
(0.855737 -0.00907764 0)
(0.845242 -0.00786732 0)
(0.836504 -0.00689007 0)
(0.829308 -0.00610144 0)
(0.823559 -0.00539596 0)
(0.819097 -0.00471697 0)
(0.815822 -0.00407281 0)
(0.813716 -0.00370785 0)
(0.813822 -0.00363425 0)
(0.962691 0.268544 0)
(0.964776 0.0996787 0)
(0.906469 0.0143833 0)
(0.831043 -0.00679881 0)
(0.771565 -0.00877172 0)
(0.729336 -0.00684834 0)
(0.697873 -0.00503299 0)
(0.67333 -0.00391189 0)
(0.653751 -0.00324506 0)
(0.637769 -0.00279431 0)
(0.624406 -0.00244937 0)
(0.613041 -0.00218442 0)
(0.603215 -0.00200792 0)
(0.59451 -0.00185352 0)
(0.586882 -0.00168974 0)
(0.58027 -0.0015148 0)
(0.574881 -0.00150815 0)
(0.57239 -0.00202312 0)
(0.00727784 -0.0056797 1.20182e-19)
(0.0311293 -0.0328713 -9.4637e-20)
(0.0684198 -0.046744 0)
(0.110084 -0.05333 0)
(0.151928 -0.0548715 0)
(0.191376 -0.0527883 6.00939e-20)
(0.227461 -0.0484808 0)
(0.259524 -0.0428769 0)
(0.287176 -0.0365712 0)
(0.310211 -0.0299233 0)
(0.328533 -0.0231314 -5.04255e-20)
(0.342165 -0.0162786 0)
(0.351084 -0.00937262 0)
(0.355314 -0.00261167 0)
(0.354912 0.00372851 0)
(0.350403 0.00931837 -4.85794e-20)
(0.342313 0.0138689 0)
(0.331227 0.0172244 0)
(0.317789 0.0193484 0)
(0.302641 0.0203963 0)
(0.286206 0.0207346 0)
(0.268784 0.0203338 0)
(0.251396 0.0187423 0)
(0.231442 0.016453 -5.0379e-20)
(0.215029 0.0165607 5.10115e-20)
(0.195357 0.020752 -5.74228e-20)
(0.162916 0.0161499 -6.68225e-20)
(0.148561 0.0261862 0)
(0.113277 0.0325268 0)
(0.0660508 0.0203036 6.68151e-20)
(0.0477218 0.0326889 4.94803e-20)
(0.00282873 0.0577366 0)
(-0.0636299 0.0616907 0)
(-0.124853 0.0528849 5.93167e-20)
(-0.18225 0.0624071 0)
(-0.255973 0.0769878 0)
(-0.331544 0.0908782 -4.83618e-20)
(-0.412816 0.0847921 0)
(-0.501565 0.0779677 -4.22393e-20)
(-0.587115 0.0834898 -7.91322e-20)
(-0.676698 0.0853154 0)
(-0.766566 0.0852926 0)
(-0.855456 0.0839527 0)
(-0.942442 0.0816059 0)
(-1.02675 0.0785075 0)
(-1.10782 0.0748828 -5.66631e-20)
(-1.18527 0.0709247 -5.42514e-20)
(-1.25889 0.0667926 -5.21214e-20)
(-1.32856 0.0626125 0)
(-1.39427 0.0584798 4.85803e-20)
(-1.45606 0.054462 0)
(-1.51405 0.0506033 -4.58193e-20)
(-1.56836 0.0469292 -4.46758e-20)
(-1.61915 0.0434503 0)
(-1.66656 0.0401663 0)
(-1.71074 0.0370694 0)
(-1.75185 0.0341465 -4.12939e-20)
(-1.79001 0.0313812 0)
(-1.82533 0.0287554 0)
(-1.85793 0.0262503 0)
(-1.88787 0.0238467 0)
(-1.91524 0.0215256 0)
(-1.94009 0.0192686 0)
(-1.96246 0.017058 0)
(-1.98236 0.0148775 0)
(-1.99983 0.0127133 3.79286e-20)
(-2.01485 0.0105554 0)
(-2.02742 0.0084004 0)
(-2.03752 0.00625569 -3.75617e-20)
(-2.04515 0.00415044 -3.74968e-20)
(-2.05028 0.00214185 0)
(-2.05288 0.000300027 3.7444e-20)
(-2.05304 -0.00138979 -3.74504e-20)
(-2.05093 -0.00298188 0)
(-2.0465 -0.00451525 3.75047e-20)
(-2.03979 -0.00600486 0)
(-2.03081 -0.00742413 0)
(-2.0198 -0.00874584 -3.76165e-20)
(-2.00677 -0.0100098 0)
(-1.99175 -0.0112366 3.77121e-20)
(-1.97474 -0.0124347 0)
(-1.95578 -0.013608 -3.78277e-20)
(-1.93488 -0.0147596 -3.78941e-20)
(-1.91204 -0.015893 -3.79677e-20)
(-1.88728 -0.0170133 -7.61e-20)
(-1.8606 -0.0181277 7.62849e-20)
(-1.83199 -0.0192448 0)
(-1.80142 -0.0203734 0)
(-1.76888 -0.0215195 0)
(-1.73431 -0.0226843 7.72773e-20)
(-1.69769 -0.0238638 7.75938e-20)
(-1.65899 -0.0250506 -7.79373e-20)
(-1.61819 -0.0262346 0)
(-1.57531 -0.0274044 7.87003e-20)
(-1.53036 -0.0285484 7.91156e-20)
(-1.48339 -0.0296542 7.95492e-20)
(-1.43447 -0.0307087 0)
(-1.38369 -0.0316978 0)
(-1.33116 -0.0326057 0)
(-1.27701 -0.0334148 8.13453e-20)
(-1.22141 -0.0341059 0)
(-1.16458 -0.034658 0)
(-1.10673 -0.0350487 -8.24827e-20)
(-1.04815 -0.0352546 0)
(-0.989147 -0.0352518 0)
(-0.930062 -0.0350164 -8.30118e-20)
(-0.871283 -0.0345258 0)
(-0.813227 -0.0337596 0)
(-0.756345 -0.0327013 8.24352e-20)
(-0.701111 -0.0313398 8.19043e-20)
(-0.648015 -0.0296719 0)
(-0.597554 -0.0277044 -8.02228e-20)
(-0.550215 -0.0254546 0)
(-0.506452 -0.0229485 7.76223e-20)
(-0.466667 -0.0202317 0)
(-0.431249 -0.0174069 7.40568e-20)
(-0.400524 -0.0146557 7.19236e-20)
(-0.37444 -0.0120033 0)
(-0.352891 -0.0097951 0)
(-0.336896 -0.00996986 0)
(-0.324483 -0.0098659 0)
(-0.31557 -0.00408828 0)
(-0.31777 -0.0146201 0)
(-0.304823 -0.00240015 0)
(-0.317593 0.0141755 4.92461e-20)
(-0.327015 0.00155212 -4.78531e-20)
(-0.339604 -0.00974276 0)
(-0.340132 -0.00509692 0)
(-0.353037 0.00615997 0)
(-0.368643 0.0077414 0)
(-0.383983 0.00680892 -5.74654e-20)
(-0.395448 0.0120731 0)
(-0.421898 0.000152603 5.46297e-20)
(-0.432756 -0.000469788 -4.46198e-20)
(-0.452398 0.0146136 0)
(-0.475067 0.0143382 0)
(-0.490738 0.0170929 0)
(-0.514119 0.0121695 3.72588e-20)
(-0.532511 -0.0119915 3.3309e-20)
(-0.544061 -0.00473547 0)
(-0.56181 0.0121518 2.37357e-20)
(-0.580294 0.012405 2.21877e-20)
(-0.595275 0.00461315 -2.07217e-20)
(-0.605145 -0.000568844 0)
(-0.612587 0.00360711 0)
(-0.619814 0.00362201 -1.69561e-20)
(-0.6236 0.000946917 0)
(-0.623311 -0.00436404 0)
(-0.617848 -0.00906203 0)
(-0.611008 -0.00384287 0)
(-0.603403 -0.00166497 1.4526e-20)
(-0.590516 -0.00695089 1.46877e-20)
(-0.572583 -0.00935402 0)
(-0.552024 -0.00749516 1.55667e-20)
(-0.526318 -0.015034 0)
(-0.495899 -0.0181113 0)
(-0.464601 -0.00643783 1.8011e-20)
(-0.42953 -0.0181776 0)
(-0.385597 -0.0283957 1.97343e-20)
(-0.343999 -0.0161287 0)
(-0.297528 -0.0205629 0)
(-0.245832 -0.0280903 2.29594e-20)
(-0.194248 -0.0244011 0)
(-0.140108 -0.0248628 2.54915e-20)
(-0.0845425 -0.0254642 0)
(-0.0278165 -0.02587 0)
(0.0297144 -0.0258672 0)
(0.0874924 -0.0254512 -2.86636e-20)
(0.144577 -0.0247621 0)
(0.200428 -0.0238685 2.79613e-20)
(0.254507 -0.0228063 0)
(0.306378 -0.021618 0)
(0.35571 -0.0203478 0)
(0.402276 -0.0190339 0)
(0.44593 -0.0176979 0)
(0.486499 -0.0163301 0)
(0.523769 -0.0148284 0)
(0.556342 -0.0129739 -4.58011e-20)
(0.584313 -0.00932699 0)
(0.590938 -0.000880559 0)
(0.0201278 -0.0646895 -3.48063e-19)
(0.0584409 -0.116458 2.51806e-19)
(0.0991493 -0.128316 0)
(0.136116 -0.126358 -1.05224e-19)
(0.168707 -0.118831 0)
(0.196948 -0.108292 -4.1883e-20)
(0.221314 -0.096085 7.80181e-20)
(0.242113 -0.0830202 7.40531e-20)
(0.259467 -0.0696045 0)
(0.273432 -0.0561605 6.93883e-20)
(0.284043 -0.0428981 3.40348e-20)
(0.291391 -0.029944 0)
(0.295375 -0.0173732 0)
(0.296551 -0.00540783 0)
(0.294608 0.00574477 0)
(0.289694 0.0157492 3.31965e-20)
(0.281778 0.0243974 0)
(0.27089 0.0315883 -6.73064e-20)
(0.257073 0.0373004 0)
(0.240412 0.0417478 0)
(0.220837 0.0453705 6.99729e-20)
(0.198408 0.0485378 0)
(0.172709 0.051616 -7.37381e-20)
(0.142748 0.0542677 3.76721e-20)
(0.108181 0.0578489 -3.78256e-20)
(0.073651 0.065082 3.80934e-20)
(0.0241994 0.0740933 3.92582e-20)
(-0.019134 0.0842101 0)
(-0.0773088 0.101709 0)
(-0.141127 0.113063 -3.57202e-20)
(-0.208067 0.123137 3.30724e-20)
(-0.280132 0.138226 0)
(-0.360331 0.15357 0)
(-0.441789 0.165833 -2.96547e-20)
(-0.529007 0.17903 0)
(-0.616862 0.190648 0)
(-0.704541 0.200252 2.50604e-20)
(-0.792623 0.206164 0)
(-0.879676 0.20788 -2.27373e-20)
(-0.963273 0.207601 4.27607e-20)
(-1.04292 0.204703 0)
(-1.1184 0.199434 0)
(-1.18979 0.192328 7.51535e-20)
(-1.2571 0.183926 7.22224e-20)
(-1.32039 0.174681 6.95801e-20)
(-1.37979 0.164971 -3.36978e-20)
(-1.4355 0.155097 3.24394e-20)
(-1.48772 0.145291 9.46285e-20)
(-1.53669 0.135719 -6.14281e-20)
(-1.58261 0.126496 -2.98543e-20)
(-1.62571 0.11769 0)
(-1.66618 0.109335 2.85542e-20)
(-1.70417 0.101439 -2.82011e-20)
(-1.73985 0.093991 0)
(-1.77332 0.0869672 0)
(-1.8047 0.0803361 0)
(-1.83407 0.074062 2.63896e-20)
(-1.8615 0.0681075 0)
(-1.88705 0.0624361 -5.18867e-20)
(-1.91075 0.0570127 0)
(-1.93264 0.0518047 -5.1069e-20)
(-1.95274 0.0467821 0)
(-1.97108 0.0419182 5.04725e-20)
(-1.98765 0.037189 0)
(-2.00249 0.0325736 -5.00566e-20)
(-2.01559 0.0280541 2.50249e-20)
(-2.02697 0.0236156 0)
(-2.03664 0.0192461 4.96984e-20)
(-2.04463 0.0149368 2.47623e-20)
(-2.05095 0.010686 2.47488e-20)
(-2.05566 0.00651455 0)
(-2.05879 0.002466 2.48279e-20)
(-2.06028 -0.00142702 2.47645e-20)
(-2.06004 -0.00518788 0)
(-2.05806 -0.00883785 -2.48068e-20)
(-2.05436 -0.0123826 4.96736e-20)
(-2.04893 -0.0158228 0)
(-2.04157 -0.0191539 2.48493e-20)
(-2.03226 -0.0223925 0)
(-2.02099 -0.0255509 -7.45738e-20)
(-2.00774 -0.0286353 0)
(-1.9925 -0.0316495 7.45948e-20)
(-1.97527 -0.0345975 2.49082e-20)
(-1.95603 -0.037485 -2.4767e-20)
(-1.93479 -0.040321 -4.94999e-20)
(-1.91154 -0.0431172 4.94666e-20)
(-1.88627 -0.0458875 0)
(-1.85896 -0.0486459 0)
(-1.82961 -0.0514017 0)
(-1.7982 -0.0541571 -1.49405e-19)
(-1.76473 -0.0569051 -5.00646e-20)
(-1.72917 -0.0596307 5.01186e-20)
(-1.69152 -0.0623136 0)
(-1.6518 -0.0649303 4.93579e-20)
(-1.61002 -0.0674559 -5.0302e-20)
(-1.56621 -0.0698642 -5.03645e-20)
(-1.52044 -0.0721281 0)
(-1.47277 -0.0742187 0)
(-1.42328 -0.0761051 0)
(-1.3721 -0.0777542 -5.0535e-20)
(-1.31935 -0.0791307 0)
(-1.26518 -0.0801971 9.96652e-20)
(-1.2098 -0.0809148 1.49903e-19)
(-1.15339 -0.0812441 -9.92005e-20)
(-1.09622 -0.0811455 0)
(-1.03853 -0.0805806 -4.84278e-20)
(-0.980643 -0.0795132 0)
(-0.922871 -0.0779111 -9.69243e-20)
(-0.865574 -0.0757488 4.72529e-20)
(-0.809132 -0.073009 4.67117e-20)
(-0.753944 -0.0696868 0)
(-0.700429 -0.0657918 1.38952e-19)
(-0.649013 -0.0613509 -9.05324e-20)
(-0.600119 -0.0564087 -4.50008e-20)
(-0.554147 -0.0510312 0)
(-0.511496 -0.0453161 -4.28613e-20)
(-0.472585 -0.0393673 -1.24026e-19)
(-0.437634 -0.0331757 0)
(-0.406782 -0.0266796 -7.76555e-20)
(-0.381168 -0.020368 -7.53887e-20)
(-0.360558 -0.0143043 -7.33142e-20)
(-0.342175 -0.00717003 0)
(-0.335349 -0.00288579 0)
(-0.321417 -0.00036632 0)
(-0.325832 0.00374772 3.19737e-20)
(-0.322088 0.00999353 3.09016e-20)
(-0.332383 0.0130143 0)
(-0.336711 0.0130799 4.98865e-20)
(-0.350319 0.0138604 4.68722e-20)
(-0.362769 0.0147011 0)
(-0.37841 0.0155266 4.10787e-20)
(-0.390992 0.0179262 7.75733e-20)
(-0.416519 0.0201848 -3.75179e-20)
(-0.430167 0.020367 -3.08117e-20)
(-0.45073 0.019626 0)
(-0.47092 0.0176777 0)
(-0.487584 0.0171458 0)
(-0.509639 0.0189082 -2.63437e-20)
(-0.530173 0.0204593 2.31533e-20)
(-0.545572 0.0180135 3.62314e-20)
(-0.562267 0.0157673 -1.64526e-20)
(-0.576536 0.0136314 1.58703e-20)
(-0.589787 0.0114245 1.47054e-20)
(-0.600797 0.00893698 0)
(-0.609428 0.00671347 0)
(-0.61497 0.00400188 -1.19617e-20)
(-0.617826 0.00122909 0)
(-0.618303 -0.00131634 0)
(-0.615534 -0.00427755 2.04574e-20)
(-0.609258 -0.00694182 0)
(-0.599439 -0.00992316 9.68391e-21)
(-0.585856 -0.0138453 -1.01147e-20)
(-0.5687 -0.0174113 0)
(-0.547476 -0.0203806 1.02276e-20)
(-0.521637 -0.0235205 0)
(-0.492846 -0.0266166 0)
(-0.460114 -0.0296991 -1.21512e-20)
(-0.422903 -0.0331932 2.81365e-20)
(-0.381346 -0.0346966 -1.29337e-20)
(-0.339679 -0.0371897 0)
(-0.290047 -0.040024 0)
(-0.238554 -0.0417901 1.37143e-20)
(-0.18764 -0.0427727 0)
(-0.132852 -0.0440136 1.49069e-20)
(-0.0765531 -0.0449064 0)
(-0.0189612 -0.0453341 0)
(0.0393399 -0.0451929 0)
(0.0977551 -0.0444628 1.80883e-20)
(0.155724 -0.0432441 0)
(0.21269 -0.0416201 -1.82007e-20)
(0.268135 -0.0396654 0)
(0.321616 -0.0374665 0)
(0.372789 -0.0351113 3.50282e-20)
(0.421402 -0.0326728 -3.46659e-20)
(0.467282 -0.0301858 0)
(0.510255 -0.0276143 0)
(0.550114 -0.0247393 0)
(0.586029 -0.0210839 9.90434e-20)
(0.617913 -0.0144129 0)
(0.641148 -0.00185128 -6.56415e-20)
(0.0232552 -0.149969 -5.35731e-22)
(0.0599696 -0.21235 -3.01761e-19)
(0.0946 -0.209236 0)
(0.123417 -0.192582 1.80237e-19)
(0.147312 -0.173607 0)
(0.166917 -0.153903 0)
(0.182977 -0.133891 1.42258e-22)
(0.195954 -0.113818 -6.0821e-20)
(0.206075 -0.0938644 -5.84387e-20)
(0.213448 -0.0741729 -5.65509e-20)
(0.218143 -0.0548734 0)
(0.220151 -0.0360363 0)
(0.219444 -0.0177954 5.46153e-20)
(0.216172 -0.000317508 1.08714e-19)
(0.210124 0.0162331 -1.08802e-19)
(0.201386 0.0316165 0)
(0.189745 0.0457493 -1.10408e-19)
(0.174973 0.0585696 5.57175e-20)
(0.156907 0.0701462 0)
(0.134944 0.0808004 -1.15504e-19)
(0.109058 0.0909267 -5.80777e-20)
(0.0789493 0.101115 1.161e-19)
(0.0441377 0.111941 5.75176e-20)
(0.00423613 0.123512 0)
(-0.0412325 0.136167 -1.12596e-19)
(-0.0915865 0.15153 -1.10583e-19)
(-0.14724 0.169522 0)
(-0.207676 0.189335 -1.04974e-19)
(-0.271854 0.211672 0)
(-0.340004 0.232851 -9.77512e-20)
(-0.41222 0.253058 -4.64017e-20)
(-0.486369 0.272669 0)
(-0.561663 0.290219 0)
(-0.638039 0.304874 0)
(-0.713916 0.316923 0)
(-0.787304 0.325349 0)
(-0.857484 0.329275 0)
(-0.924777 0.328261 -6.73631e-20)
(-0.989226 0.323306 9.62712e-20)
(-1.05062 0.315686 0)
(-1.10856 0.305705 0)
(-1.16328 0.29379 0)
(-1.21512 0.280474 1.07937e-22)
(-1.26437 0.266271 -5.16237e-20)
(-1.31127 0.251632 -9.95459e-20)
(-1.35605 0.236926 9.6086e-20)
(-1.39886 0.22244 4.65386e-20)
(-1.43986 0.208378 -4.49923e-20)
(-1.47916 0.194877 -1.454e-22)
(-1.51684 0.182013 -4.27146e-20)
(-1.55296 0.169821 0)
(-1.58758 0.158299 -4.0773e-20)
(-1.62074 0.147425 -1.76379e-22)
(-1.65246 0.137158 0)
(-1.68276 0.127452 0)
(-1.71166 0.118252 3.79973e-20)
(-1.73917 0.109506 0)
(-1.76529 0.10116 0)
(-1.79004 0.0931669 -3.68305e-20)
(-1.8134 0.0854798 -7.25966e-20)
(-1.83539 0.0780583 3.58153e-20)
(-1.85599 0.0708659 0)
(-1.87521 0.0638713 -3.53415e-20)
(-1.89304 0.0570482 0)
(-1.90946 0.050375 -3.53382e-20)
(-1.92448 0.0438357 -3.48809e-20)
(-1.93808 0.0374194 6.98726e-20)
(-1.95026 0.0311205 3.50004e-20)
(-1.961 0.0249385 0)
(-1.97028 0.018875 -6.94904e-20)
(-1.97808 0.0129264 0)
(-1.98434 0.00707421 -1.0399e-19)
(-1.989 0.00129729 -6.93884e-20)
(-1.99202 -0.0044119 -6.93919e-20)
(-1.99333 -0.0100329 6.94054e-20)
(-1.99292 -0.0155606 -1.04022e-19)
(-1.99074 -0.0209975 0)
(-1.98674 -0.0263554 0)
(-1.9809 -0.0316326 6.92324e-20)
(-1.97318 -0.036824 1.03775e-19)
(-1.96356 -0.0419271 0)
(-1.95201 -0.046941 -3.45709e-20)
(-1.93851 -0.0518671 0)
(-1.92304 -0.0567091 1.03314e-19)
(-1.90559 -0.0614744 2.83483e-22)
(-1.88613 -0.0661735 -3.34929e-22)
(-1.86465 -0.0708195 -6.84349e-20)
(-1.84113 -0.0754249 0)
(-1.81559 -0.0799985 6.81789e-20)
(-1.78799 -0.0845415 5.47399e-22)
(-1.75835 -0.089045 0)
(-1.72666 -0.0934906 0)
(-1.69292 -0.0978515 0)
(-1.65715 -0.102096 -6.82827e-20)
(-1.61935 -0.106187 0)
(-1.57955 -0.110087 0)
(-1.53781 -0.113756 0)
(-1.49418 -0.11715 0)
(-1.44872 -0.120224 0)
(-1.40154 -0.122929 -6.64818e-20)
(-1.35273 -0.125214 0)
(-1.30243 -0.127024 -6.70883e-20)
(-1.25078 -0.128305 -6.67888e-20)
(-1.19796 -0.128999 6.64313e-20)
(-1.14416 -0.129051 0)
(-1.0896 -0.128407 6.55097e-20)
(-1.03454 -0.127017 0)
(-0.979228 -0.124835 6.42636e-20)
(-0.923973 -0.121827 -6.35034e-20)
(-0.869088 -0.117966 -1.85486e-19)
(-0.814913 -0.113243 0)
(-0.761803 -0.107668 -1.79569e-19)
(-0.710127 -0.101272 -5.72475e-20)
(-0.660264 -0.0941102 0)
(-0.612586 -0.0862667 -1.11784e-19)
(-0.567473 -0.0778562 -1.09102e-19)
(-0.525324 -0.0690072 1.60299e-19)
(-0.486463 -0.0598107 0)
(-0.451108 -0.0503693 5.09583e-20)
(-0.419892 -0.0410093 4.94575e-20)
(-0.393206 -0.0317279 1.43116e-19)
(-0.369858 -0.0219104 0)
(-0.351557 -0.0140522 0)
(-0.340656 -0.00672323 0)
(-0.328816 0.0012759 4.16335e-20)
(-0.323265 0.00876409 0)
(-0.32335 0.0143155 0)
(-0.329555 0.0180013 -3.52927e-20)
(-0.336879 0.0214712 -3.34728e-20)
(-0.346668 0.0240613 0)
(-0.359679 0.0262963 0)
(-0.373949 0.0294155 -5.56225e-20)
(-0.389384 0.031614 0)
(-0.409372 0.0322812 4.58292e-20)
(-0.427315 0.0329298 4.33079e-20)
(-0.445655 0.0319556 0)
(-0.464143 0.0316016 0)
(-0.481558 0.0315234 -3.67983e-20)
(-0.500846 0.0297553 5.78269e-22)
(-0.52101 0.0275779 5.18631e-22)
(-0.53714 0.0258839 0)
(-0.550698 0.0230399 -4.82974e-20)
(-0.563381 0.0189778 0)
(-0.575192 0.014739 0)
(-0.584424 0.0111994 0)
(-0.590302 0.00702978 1.83324e-20)
(-0.593527 0.00233367 0)
(-0.594368 -0.00261094 -3.29049e-20)
(-0.592862 -0.00750292 -1.56528e-20)
(-0.587675 -0.0116162 0)
(-0.577941 -0.0165439 -1.50576e-20)
(-0.564651 -0.0225101 0)
(-0.548183 -0.0280992 0)
(-0.527606 -0.0333593 -4.64802e-20)
(-0.502956 -0.0390042 3.17311e-20)
(-0.475622 -0.0436077 0)
(-0.443455 -0.0481826 3.38043e-20)
(-0.405925 -0.0539229 -1.91889e-20)
(-0.367808 -0.0572985 0)
(-0.325697 -0.0612553 0)
(-0.277548 -0.0661378 0)
(-0.228384 -0.0680548 -6.22022e-20)
(-0.177819 -0.0696155 0)
(-0.123876 -0.0714687 -2.29503e-20)
(-0.0682862 -0.0728106 0)
(-0.0113807 -0.0734412 0)
(0.0463142 -0.0732854 0)
(0.104205 -0.0723394 0)
(0.161714 -0.0706553 0)
(0.21828 -0.0683154 0)
(0.273389 -0.0654277 -5.23193e-20)
(0.326603 -0.0621209 0)
(0.377574 -0.0585281 -2.68167e-20)
(0.42605 -0.0547639 7.91937e-20)
(0.471857 -0.0508892 0)
(0.51485 -0.0468631 0)
(0.554886 -0.0424207 -5.15177e-20)
(0.591544 -0.0369596 -5.19651e-20)
(0.624951 -0.0284897 5.11693e-20)
(0.654433 -0.0146353 5.23828e-20)
(0.0197054 -0.22685 6.17495e-19)
(0.049258 -0.28493 4.14494e-19)
(0.075002 -0.266564 2.00027e-19)
(0.0950432 -0.237768 8.06089e-20)
(0.1109 -0.209719 0)
(0.123321 -0.18274 -1.23482e-19)
(0.132889 -0.156485 5.72526e-20)
(0.139931 -0.130793 0)
(0.144597 -0.105603 5.12383e-20)
(0.146944 -0.080914 0)
(0.147004 -0.0567349 -9.82371e-20)
(0.144604 -0.0330173 0)
(0.139884 -0.00993937 -4.79916e-20)
(0.132554 0.0124806 -9.57377e-20)
(0.122586 0.0340745 9.60458e-20)
(0.109729 0.0548222 0)
(0.0938437 0.0747317 9.70083e-20)
(0.0746242 0.093858 0)
(0.0516752 0.112355 0)
(0.0248243 0.130386 9.65463e-20)
(-0.0063224 0.148312 0)
(-0.0419798 0.166572 3.7052e-22)
(-0.0821625 0.185534 0)
(-0.126989 0.205463 0)
(-0.176483 0.226614 -3.13818e-22)
(-0.230381 0.249434 8.81473e-20)
(-0.288101 0.273874 8.59072e-20)
(-0.348922 0.299265 8.2761e-20)
(-0.411922 0.324887 0)
(-0.476204 0.349138 1.53667e-19)
(-0.54119 0.371083 0)
(-0.606149 0.390268 7.06726e-20)
(-0.670175 0.405907 0)
(-0.732369 0.417287 0)
(-0.792024 0.424272 -6.14868e-20)
(-0.848676 0.426751 0)
(-0.902197 0.424577 5.58446e-20)
(-0.952886 0.417952 -1.92094e-22)
(-1.0012 0.407791 -1.0131e-19)