/*--------------------------------*- C++ -*----------------------------------*\
  =========                 |
  \\      /  F ield         | OpenFOAM: The Open Source CFD Toolbox
   \\    /   O peration     | Website:  https://openfoam.org
    \\  /    A nd           | Version:  9
     \\/     M anipulation  |
\*---------------------------------------------------------------------------*/
FoamFile
{
    format      ascii;
    class       volScalarField;
    location    "0.16";
    object      epsilon;
}
// * * * * * * * * * * * * * * * * * * * * * * * * * * * * * * * * * * * * * //

dimensions      [0 2 -3 0 0 0 0];

internalField   nonuniform List<scalar> 
12225
(
210.031
126.646
82.206
58.8707
46.2933
38.9955
34.2542
30.7973
28.0543
25.763
23.7887
22.0523
20.5035
19.1136
17.8792
16.8601
17.0619
25.5272
62.4247
55.3478
42.3497
33.3853
27.629
23.8001
21.1204
19.1325
17.5745
16.2988
15.2185
14.2783
13.44
12.6759
11.965
11.2973
10.9969
13.2498
31.7677
33.3989
28.9034
24.3722
20.8331
18.194
16.2189
14.7044
13.5074
12.5352
11.7275
11.0434
10.4537
9.93637
9.47542
9.07208
8.94965
10.1523
21.9707
23.9607
22.2274
19.6961
17.3479
15.4
13.8367
12.5843
11.5701
10.7376
10.0456
9.46445
8.97228
8.55299
8.19772
7.92034
7.88188
8.6535
17.8817
19.1426
18.3358
16.7844
15.1458
13.6623
12.3952
11.3347
10.4504
9.71088
9.08993
8.56689
8.12608
7.75664
7.4553
7.24156
7.23115
7.75549
15.9132
16.4394
15.895
14.8252
13.6136
12.4482
11.4027
10.494
9.71451
9.0492
8.48261
8.00123
7.59449
7.25563
6.98509
6.80285
6.79137
7.15041
14.8934
14.8431
14.3079
13.4614
12.5012
11.5498
10.6684
9.87989
9.18712
8.58452
8.06375
7.61652
7.23612
6.91882
6.66708
6.49876
6.47145
6.71065
14.3465
13.8774
13.2602
12.5008
11.681
10.8689
10.1053
9.40955
8.78754
8.23803
7.75685
7.33912
6.98084
6.68026
6.44068
6.27679
6.2284
6.37676
14.0495
13.2898
12.5682
11.8253
11.0767
10.3503
9.66783
9.0413
8.47526
7.96969
7.52234
7.13029
6.79115
6.50431
6.27308
6.1089
6.03915
6.11763
13.8881
12.9346
12.1157
11.3559
10.6362
9.9586
9.32906
8.75183
8.22833
7.7579
7.33869
6.96858
6.64597
6.3707
6.14559
5.97918
5.89013
5.91461
13.8008
12.7231
11.8253
11.036
10.3214
9.66793
9.07046
8.52644
8.03382
7.59033
7.19367
6.84173
6.53308
6.26751
6.04713
5.87798
5.77271
5.75579
13.7578
12.6098
11.6585
10.8412
10.1204
9.47511
8.8936
8.36873
7.89551
7.47007
7.08924
6.75052
6.45222
6.19384
5.97669
5.80499
5.68749
5.6412
13.7331
12.5406
11.5503
10.7084
9.97746
9.33312
8.75967
8.24664
7.78671
7.37446
7.00576
6.67754
6.38768
6.1352
5.92062
5.74661
5.61894
5.54965
13.7184
12.4965
11.4771
10.6135
9.87056
9.22283
8.65239
8.14651
7.69594
7.29387
6.93518
6.61604
6.33379
6.08682
5.87481
5.69899
5.56263
5.47372
13.7104
12.4715
11.4332
10.5535
9.79958
9.14657
8.57575
8.07316
7.62833
7.23333
6.88217
6.57031
6.29442
6.05224
5.84257
5.66538
5.52201
5.41746
13.7066
12.4592
11.4105
10.5209
9.75932
9.10166
8.52928
8.02782
7.58618
7.19576
6.8499
6.54347
6.27255
6.03422
5.82654
5.64844
5.49981
5.38354
13.7049
12.454
11.4008
10.5067
9.74127
9.0812
8.50806
8.00744
7.56801
7.18083
6.83885
6.5365
6.2694
6.03412
5.82812
5.64957
5.49736
5.37297
13.7042
12.4523
11.398
10.5028
9.73697
9.0771
8.50495
8.00613
7.56918
7.18502
6.84635
6.54733
6.28327
6.05041
5.84577
5.66705
5.51252
5.38283
13.7041
12.4525
11.3993
10.5058
9.7421
9.0848
8.51551
8.0197
7.58582
7.20466
6.86879
6.57226
6.31019
6.07864
5.87442
5.695
5.53833
5.40468
13.7051
12.4567
11.4083
10.5203
9.76214
9.10976
8.54443
8.0515
7.61944
7.23912
6.90326
6.60599
6.34253
6.10898
5.90216
5.71953
5.55906
5.42083
13.7094
12.4712
11.4353
10.5596
9.81134
9.16569
8.60385
8.11158
7.67793
7.29437
6.95413
6.65176
6.38277
6.14345
5.93072
5.74214
5.57573
5.43154
13.724
12.5161
11.5119
10.6617
9.92958
9.29087
8.72849
8.23032
7.78734
7.39256
7.0403
6.72581
6.44507
6.19462
5.97146
5.77316
5.5978
5.44541
13.7683
12.6386
11.7018
10.8942
10.1797
9.53913
8.96204
8.44222
7.9747
7.55501
7.17896
6.84258
6.54213
6.27418
6.03561
5.82377
5.63657
5.47393
13.8918
12.9397
12.1209
11.3628
10.6474
9.97604
9.35372
8.78363
8.26697
7.80265
7.3875
7.01763
6.68892
6.39729
6.13897
5.91064
5.70972
5.53575
14.2159
13.6197
12.9645
12.2237
11.4461
10.6796
9.95617
9.29243
8.69411
8.16095
7.68977
7.27496
6.91051
6.59061
6.30998
6.06401
5.84915
5.66426
15.0329
15.0717
14.5616
13.7108
12.7318
11.7538
10.8426
10.0247
9.30504
8.67796
8.13456
7.6654
7.26028
6.91011
6.60702
6.34445
6.11734
5.92355
17.0884
18.126
17.5178
16.2184
14.7611
13.3777
12.1533
11.1041
10.2173
9.47074
8.84139
8.31096
7.86278
7.48265
7.15904
6.88269
6.64664
6.44738
22.6497
24.8335
23.1433
20.5679
18.0953
15.9842
14.2615
12.8776
11.7664
10.8688
10.1373
9.536
9.04084
8.63032
8.28801
8.00118
7.76034
7.56039
41.1604
41.516
35.154
29.1989
24.5666
21.0933
18.5142
16.5882
15.1268
13.9968
13.1076
12.397
11.8286
11.3723
11.0038
10.7043
10.4604
10.2653
136.057
97.1749
71.6865
54.9008
43.8026
36.414
31.4147
27.935
25.4272
23.5575
22.1239
21.0062
20.1309
19.4521
18.9155
18.4887
18.1493
17.8819
13.4519
5.18607
6.39834
7.31439
7.99256
8.45492
8.67417
8.45332
8.68915
8.4102
8.31256
8.27362
8.25109
8.25145
8.26823
8.30143
8.3526
8.61969
8.81335
38.975
38.5397
9.02327
9.09402
39.6921
41.3568
42.3284
42.6781
9.05751
44.2409
45.1868
39.2256
41.3327
44.4513
48.059
52.1288
56.6618
61.6456
67.0526
72.8437
78.9723
85.3881
92.0403
98.8803
105.863
112.947
120.098
127.284
134.479
141.661
148.812
155.915
162.959
169.931
176.822
183.622
190.324
196.918
203.397
209.751
215.973
222.053
227.984
233.755
239.361
244.796
250.057
255.145
260.07
264.851
269.519
274.131
278.568
282.716
286.568
290.11
293.32
296.171
298.636
300.683
302.28
303.394
303.989
304.028
303.476
302.296
300.452
297.911
294.639
290.611
285.803
280.199
273.791
266.581
258.584
249.825
240.348
230.21
219.485
208.264
196.655
184.778
172.766
160.76
148.902
137.334
126.189
115.586
105.629
96.3998
87.9605
80.3564
73.6204
67.77
62.8
58.703
55.6143
54.3839
58.012
56.5804
55.6018
54.4518
12.3127
55.1356
54.91
57.6139
56.3752
12.5298
54.4632
55.0343
56.6002
12.9551
12.9777
12.9078
57.1698
57.2226
57.3678
57.4946
57.3476
13.4638
58.5011
13.3486
13.4832
13.6882
13.7637
62.0879
61.4324
14.2798
60.8896
62.0661
63.0692
14.4807
14.0683
13.9344
14.8929
14.3187
65.0478
64.5359
15.0889
14.5751
15.3796
15.0007
13.5327
15.7179
15.5968
15.3056
15.0151
14.7323
14.4464
14.1524
13.8498
13.54
13.224
12.9013
12.5702
12.2273
11.8678
11.4846
11.0686
10.5987
10.0857
18.0798
12.7676
11.6939
11.2046
10.8778
10.6697
10.6435
10.9298
10.9283
11.3145
11.667
11.9545
12.2358
12.5729
13
13.5204
14.0643
14.4879
15.6974
18.9601
20.9214
21.0001
23.0292
27.6529
30.9595
33.7847
36.2762
37.8556
42.2254
45.5219
48.6619
51.7212
54.577
57.206
59.6229
61.8372
63.8637
65.7254
67.4493
69.0622
70.5893
72.0521
73.4688
74.8538
76.2179
77.569
78.9125
80.2517
81.588
82.9218
84.2526
85.5788
86.8987
88.2101
89.5105
90.7974
92.0682
93.3203
94.5515
95.7595
96.9425
98.0992
99.2289
100.332
101.41
102.466
103.507
104.54
105.579
106.642
107.747
108.904
110.001
111.019
111.951
112.787
113.517
114.131
114.617
114.965
115.161
115.193
115.046
114.708
114.164
113.4
112.403
111.161
109.661
107.894
105.852
103.531
100.927
98.044
94.8886
91.4729
87.8149
83.9383
79.8735
75.6564
71.329
66.9376
62.5325
58.1659
53.8903
49.7565
45.8115
42.0971
38.6483
35.4921
32.6477
30.1258
27.927
26.0404
24.4453
23.1292
22.1729
22.0159
21.3056
20.615
19.6545
17.1757
19.4439
19.1228
19.1016
18.3962
16.0347
18.4487
18.153
17.0066
13.2892
13.5991
15.1047
17.9854
18.082
17.943
17.6232
16.673
13.6046
16.3052
12.7801
12.765
13.2715
14.8663
17.9484
17.1048
13.649
18.1347
18.2053
17.1489
12.377
12.7905
13.4169
11.9029
13.0298
18.08
17.2283
11.1318
10.8284
10.5057
10.7494
13.2464
10.3369
9.84434
9.58955
9.36427
9.148
8.93308
8.71687
8.49941
8.28148
8.06356
7.84532
7.6256
7.40249
7.17347
6.93563
6.68747
6.43397
6.25087
26.2502
17.2941
14.8893
13.7301
13.0122
12.537
12.2443
12.1078
12.0664
12.1568
12.3527
12.66
13.1117
13.727
14.5367
15.574
16.8648
18.438
20.4294
22.924
25.6535
28.3653
31.3482
34.6018
37.7075
40.5999
43.2677
45.7115
48.143
50.2454
52.0393
53.5428
54.7651
55.7593
56.5818
57.2803
57.8967
58.4666
59.0181
59.5713
60.1393
60.7284
61.3406
61.9742
62.6254
63.2892
63.9603
64.6338
65.3054
65.9716
66.6298
67.2782
67.9159
68.5427
69.1587
69.7646
70.3615
70.9507
71.5337
72.1121
72.6878
73.2628
73.8392
74.4192
75.0053
75.6001
76.2062
76.8262
77.4624
78.116
78.7863
79.4564
80.1034
80.7182
81.2946
81.8267
82.3078
82.7308
83.0879
83.3706
83.5698
83.6758
83.6783
83.5665
83.3293
82.9553
82.4329
81.7507
80.898
79.8644
78.6409
77.22
75.5963
73.7667
71.7313
69.4939
67.0621
64.4482
61.669
58.7464
55.707
52.5818
49.4057
46.2165
43.0537
39.9572
36.9655
34.1146
31.4362
28.9563
26.6942
24.6616
22.8619
21.2883
19.9239
18.7478
17.7576
16.9825
16.284
15.6709
15.0811
14.4842
14.4056
14.0456
13.7198
13.3904
13.0053
13.0612
12.7796
12.3274
11.7337
11.7213
11.9331
12.1989
12.1437
12.0234
11.8514
11.5702
11.1751
11.371
10.9422
10.9136
11.0177
11.2923
11.6043
11.4147
11.0574
11.6742
11.6243
11.2843
10.5798
10.6467
10.6574
10.2659
10.5152
11.1407
10.7725
9.58908
9.37323
9.08422
9.09478
9.60873
8.56337
8.15893
7.90848
7.68508
7.47062
7.26074
7.05478
6.85338
6.65725
6.46657
6.28075
6.09841
5.91751
5.73553
5.54983
5.35882
5.16843
5.00665
34.6677
21.179
17.546
15.8997
14.9596
14.3743
14.0172
13.8358
13.8064
13.929
14.2128
14.6826
15.345
16.2301
17.3794
18.8423
20.633
22.7497
25.1908
27.9084
30.7893
33.7101
36.6041
39.3824
41.9278
44.179
46.1172
47.7495
49.1042
50.1791
51.017
51.6621
52.159
52.5612
52.917
53.2622
53.6212
54.0083
54.4301
54.8868
55.3742
55.8856
56.4127
56.9473
57.4817
58.0092
58.5247
59.0244
59.5059
59.9684
60.4118
60.8374
61.2468
61.6423
62.0265
62.4023
62.7727
63.1406
63.5089
63.8806
64.2583
64.6446
65.0418
65.452
65.8771
66.3186
66.7774
67.2541
67.7485
68.2594
68.7846
69.3138
69.8378
70.3511
70.8491
71.3271
71.78
72.202
72.5868
72.9273
73.2158
73.4438
73.6023
73.6814
73.6708
73.5595
73.3364
72.9897
72.5078
71.8793
71.0932
70.1394
69.009
67.6949
66.1921
64.4986
62.6153
60.5474
58.3039
55.8988
53.3505
50.6825
47.9228
45.1033
42.2591
39.4275
36.6462
33.9522
31.3801
28.96
26.7165
24.6672
22.8217
21.1807
19.7355
18.4716
17.3781
16.4492
15.6583
14.9799
14.3846
13.866
13.4686
13.0676
12.7084
12.399
12.1205
11.9067
11.6462
11.3682
11.1159
10.9913
10.9263
10.8638
10.7568
10.6392
10.5159
10.3834
10.2619
10.232
10.1266
10.0818
10.0716
10.0951
10.1088
10.0511
9.99035
10.0737
10.0215
9.89782
9.73654
9.70878
9.6423
9.49022
9.48343
9.48953
9.28214
8.90987
8.71574
8.47558
8.34083
8.29961
7.7933
7.45452
7.19415
6.95389
6.72294
6.49962
6.28464
6.07924
5.88432
5.70002
5.5256
5.35952
5.1995
5.0428
4.88663
4.72901
4.5741
4.43478
43.1235
25.0464
20.326
18.2724
17.1573
16.501
16.1291
15.9717
16.0043
16.2278
16.6569
17.2947
18.1522
19.2605
20.6483
22.3347
24.3177
26.5712
29.0433
31.6529
34.2969
36.8688
39.2774
41.4471
43.3238
44.8873
46.148
47.1386
47.9032
48.4884
48.9475
49.328
49.6693
50.0049
50.3594
50.7471
51.1739
51.6389
52.1365
52.6585
53.1954
53.7372
54.2749
54.8005
55.3077
55.7917
56.2494
56.6793
57.0812
57.4562
57.8062
58.1338
58.4423
58.7351
59.0161
59.2889
59.5574
59.8252
60.0958
60.3724
60.6581
60.9555
61.2671
61.595
61.9408
62.3057
62.6906
63.0958
63.5209
63.9652
64.4273
64.9016
65.3823
65.8657
66.3481
66.8261
67.2953
67.7512
68.1886
68.6014
68.9831
69.3261
69.6225
69.8631
70.0383
70.1376
70.1498
70.0631
69.8652
69.5437
69.0858
68.4792
67.7119
66.7732
65.6536
64.3458
62.845
61.1499
59.2627
57.1901
54.9438
52.5405
50.0023
47.3564
44.6346
41.8727
39.1089
36.3828
33.733
31.196
28.8033
26.5806
24.546
22.7086
21.0688
19.6196
18.3518
17.2558
16.3159
15.509
14.81
14.204
13.6824
13.214
12.8008
12.4406
12.1202
11.8328
11.5566
11.2987
11.0732
10.8955
10.7477
10.6109
10.4762
10.3484
10.2293
10.12
10.027
9.95946
9.88725
9.82923
9.78393
9.7502
9.71665
9.67492
9.63665
9.61977
9.56911
9.49902
9.42373
9.3686
9.29207
9.18874
9.11
9.00941
8.84516
8.62945
8.43388
8.20562
7.99904
7.79244
7.43261
7.11333
6.83322
6.56778
6.31231
6.06734
5.83473
5.61632
5.41335
5.22606
5.05375
4.89475
4.74665
4.60648
4.47124
4.33855
4.21094
4.09433
51.5087
29.0484
23.3444
20.9269
19.6591
18.9474
18.5746
18.453
18.5503
18.8625
19.3854
20.112
21.0646
22.2626
23.7168
25.4238
27.3601
29.4801
31.7168
33.9869
36.2007
38.2744
40.141
41.7568
43.1047
44.194
45.0554
45.7327
46.2744
46.7277
47.1351
47.5305
47.9383
48.3744
48.847
49.3575
49.9023
50.474
51.0634
51.6605
52.2555
52.8392
53.4039
53.9432
54.4526
54.929
55.3708
55.7779
56.1513
56.4932
56.8061
57.0937
57.3595
57.6078
57.8425
58.068
58.2883
58.5073
58.7287
58.956
59.1924
59.4407
59.7035
59.983
60.2809
60.5987
60.9374
61.2978
61.6799
62.0837
62.5086
62.9521
63.4099
63.8791
64.3571
64.8413
65.3283
65.8147
66.2964
66.7684
67.2254
67.6611
68.0684
68.4395
68.7656
69.037
69.2429
69.372
69.4117
69.349
69.17
68.8605
68.4064
67.7934
67.0083
66.0388
64.8745
63.5078
61.9339
60.1523
58.1672
55.9881
53.6306
51.1162
48.4725
45.7331
42.936
40.1226
37.3361
34.6192
32.0117
29.5485
27.2572
25.157
23.2578
21.5609
20.0618
18.7521
17.6181
16.6403
15.7937
15.0592
14.4202
13.859
13.3667
12.9344
12.5508
12.2066
11.8935
11.6109
11.3611
11.1445
10.9538
10.7813
10.6231
10.4789
10.3488
10.2328
10.1321
10.0465
9.96786
9.89758
9.83552
9.78099
9.73045
9.68133
9.634
9.58885
9.53339
9.47071
9.40407
9.33515
9.25187
9.15267
9.04723
8.91929
8.75883
8.56752
8.36028
8.12386
7.8764
7.60718
7.27566
6.94857
6.64171
6.34593
6.06085
5.78891
5.53305
5.29581
5.07882
4.88261
4.70655
4.54899
4.40741
4.27868
4.15958
4.04732
3.94301
3.84853
59.6817
33.2754
26.568
23.7812
22.3618
21.595
21.217
21.1184
21.2551
21.6028
22.1366
22.8697
23.8142
24.9767
26.3531
27.9253
29.6584
31.5009
33.3886
35.2505
37.0184
38.6348
40.0607
41.2785
42.2925
43.125
43.811
44.3908
44.9047
45.3877
45.8682
46.3663
46.8941
47.4567
48.054
48.6815
49.3319
49.9962
50.6647
51.328
51.9772
52.6046
53.2036
53.7696
54.2988
54.7895
55.2408
55.6534
56.0287
56.3692
56.678
56.9587
57.2151
57.4516
57.6722
57.8813
58.0829
58.2812
58.4799
58.6826
58.8924
59.1125
59.3454
59.5935
59.8588
60.1431
60.4476
60.7735
61.1215
61.492
61.8851
62.3004
62.7349
63.1862
63.6525
64.1319
64.6224
65.1213
65.6258
66.1322
66.6366
67.1339
67.6187
68.0844
68.5237
68.9279
69.2877
69.5923
69.8299
69.9874
70.0509
70.005
69.8338
69.5208
69.0491
68.4024
67.565
66.5229
65.2643
63.7812
62.0694
60.1303
57.9716
55.6075
53.06
50.3582
47.5383
44.6423
41.7165
38.8094
35.9688
33.2392
30.6592
28.259
26.0593
24.0708
22.2961
20.7307
19.3635
18.1786
17.1508
16.2586
15.4827
14.8058
14.2141
13.6952
13.2372
12.8304
12.4672
12.1433
11.856
11.6021
11.3766
11.1745
10.9925
10.8287
10.682
10.5514
10.436
10.3341
10.2426
10.1595
10.0839
10.0149
9.95065
9.88911
9.82878
9.76805
9.70306
9.63361
9.55917
9.47772
9.38421
9.27639
9.15403
9.01003
8.83974
8.64163
8.41782
8.16434
7.88672
7.58133
7.23866
6.89009
6.55173
6.22185
5.90325
5.60009
5.31644
5.05564
4.81985
4.60992
4.42541
4.26472
4.12532
4.00394
3.89718
3.80184
3.71778
3.6442
67.1295
37.3147
29.7192
26.6087
25.0596
24.2465
23.8615
23.773
23.9115
24.2293
24.7258
25.4044
26.2671
27.3106
28.5224
29.8782
31.3418
32.8661
34.398
35.884
37.2768
38.5415
39.6589
40.6267
41.4579
42.1764
42.8124
43.3973
43.9598
44.5232
45.1044
45.7138
46.3557
47.0298
47.732
48.4555
49.1922
49.9329
50.6686
51.3907
52.0915
52.7643
53.4037
54.0057
54.5674
55.0875
55.5657
56.0027
56.4001
56.7604
57.0867
57.3824
57.6513
57.8975
58.1251
58.3383
58.5411
58.7374
58.9309
59.1252
59.3235
59.5289
59.744
59.9714
60.2131
60.471
60.7469
61.0421
61.3577
61.6947
62.0535
62.4348
62.8374
63.2593
63.6994
64.1564
64.6292
65.1164
65.6162
66.1265
66.6447
67.1674
67.6908
68.2101
68.7197
69.213
69.682
70.1177
70.5095
70.8456
71.1124
71.2947
71.3759
71.3381
71.162
70.8277
70.315
69.604
68.6763
67.5157
66.1096
64.4499
62.535
60.3701
57.9692
55.3547
52.5586
49.621
46.5892
43.516
40.4561
37.4636
34.5883
31.8725
29.3489
27.0396
24.9561
23.1005
21.4663
20.0417
18.802
17.7245
16.788
15.9735
15.2638
14.6438
14.1
13.621
13.1977
12.8231
12.4917
12.1985
11.9384
11.7066
11.4994
11.3141
11.1484
11.0004
10.8684
10.7502
10.644
10.5471
10.4578
10.3748
10.2965
10.2209
10.1465
10.0716
9.99406
9.9126
9.82554
9.73044
9.62392
9.50314
9.3654
9.20613
9.02142
8.80852
8.56616
8.29222
7.9879
7.65248
7.28485
6.9086
6.53575
6.16902
5.81371
5.47567
5.16023
4.87163
4.61268
4.38466
4.18736
4.01929
3.87792
3.75993
3.66175
3.5798
3.51289
3.45832
73.6948
40.9762
32.6074
29.219
27.5622
26.7126
26.3213
26.2197
26.3202
26.5957
27.0341
27.6296
28.377
29.2672
30.2849
31.4064
32.6001
33.8285
35.0519
36.233
37.3417
38.3582
39.2749
40.0964
40.8366
41.5159
42.1573
42.783
43.412
44.0585
44.7319
45.4365
46.1722
46.9359
47.7218
48.5224
49.3295
50.1346
50.9292
51.7057
52.457
53.1774
53.862
54.5073
55.1109
55.6716
56.189
56.664
57.098
57.4932
57.8525
58.1791
58.4765
58.7485
58.9988
59.2315
59.4502
59.6588
59.8607
60.0594
60.2579
60.4593
60.6661
60.8808
61.1056
61.3424
61.593
61.859
62.1418
62.4424
62.762
63.1014
63.4615
63.8407
64.238
64.6531
65.0855
65.535
66.001
66.4827
66.979
67.4884
68.0087
68.5373
69.0707
69.6044
70.1329
70.6492
71.1452
71.6106
72.0338
72.4007
72.6954
72.8996
72.9931
72.9536
72.7576
72.3803
71.7971
70.984
69.9194
68.5856
66.97
65.0672
62.8807
60.424
57.7213
54.8081
51.7301
48.5414
45.3022
42.0747
38.9198
35.8924
33.0386
30.3932
27.9791
25.8074
23.8783
22.1848
20.705
19.4157
18.2949
17.3212
16.4752
15.739
15.0968
14.5351
14.0424
13.6095
13.2284
12.8926
12.5959
12.3328
12.0989
11.8905
11.7043
11.5378
11.3883
11.2534
11.1316
11.0199
10.9161
10.8184
10.7251
10.6346
10.5451
10.4552
10.363
10.267
10.1652
10.0552
9.93411
9.79873
9.64578
9.47121
9.27106
9.04185
8.78098
8.48621
8.15695
7.79319
7.3971
6.99088
6.58206
6.17669
5.78222
5.4062
5.05538
4.73506
4.44884
4.19851
3.98418
3.80448
3.65693
3.5382
3.44458
3.37221
3.31897
3.28086
79.2172
44.1106
35.0838
31.4603
29.7153
28.839
28.4248
28.296
28.3728
28.6142
28.9983
29.5123
30.1461
30.8886
31.7248
32.6352
33.5956
34.579
35.5581
36.5089
37.4132
38.2608
39.05
39.7871
40.4843
41.157
41.8215
42.4927
43.1825
43.8991
44.6468
45.4265
46.2356
47.0696
47.9219
48.7851
49.6512
50.5122
51.3602
52.1882
52.9899
53.7597
54.4935
55.1877
55.8401
56.4495
57.0154
57.5385
58.0198
58.4614
58.8656
59.2353
59.5736
59.8838
60.1695
60.4341
60.6811
60.914
61.1359
61.3499
61.5591
61.7659
61.973
62.1827
62.3969
62.6175
62.8464
63.085
63.3348
63.597
63.873
64.1637
64.4716
64.7955
65.135
65.4901
65.8611
66.2485
66.653
67.075
67.5149
67.9729
68.4488
68.9419
69.4513
69.9748
70.5097
71.052
71.596
72.1347
72.6589
73.157
73.6151
74.0162
74.3406
74.5654
74.6651
74.6117
74.3753
73.9252
73.2313
72.2656
71.004
69.4291
67.5316
65.3132
62.7875
59.9817
56.9362
53.7038
50.3469
46.9343
43.5364
40.2208
37.0475
34.0657
31.3114
28.8073
26.5627
24.576
22.8311
21.3058
19.9776
18.824
17.8233
16.9553
16.2016
15.5461
14.9749
14.4761
14.0398
13.6573
13.3211
13.0247
12.7623
12.5294
12.3217
12.1357
11.9682
11.8163
11.678
11.5506
11.4314
11.3182
11.2091
11.1026
10.997
10.8909
10.7826
10.6705
10.5526
10.4267
10.2901
10.1396
9.97166
9.78232
9.56733
9.32267
9.04479
8.73073
8.37878
7.98826
7.56624
7.12966
6.68489
6.24023
5.80505
5.38864
4.99931
4.64367
4.32628
4.04957
3.81401
3.61843
3.46039
3.33658
3.24321
3.17622
3.13277
3.10796
83.5622
46.6043
37.0433
33.2308
31.4119
30.4942
30.0672
29.9408
30.0184
30.2478
30.5993
31.0546
31.6006
32.2257
32.9172
33.6606
34.4393
35.2358
36.0331
36.8171
37.578
38.3112
39.0182
39.7049
40.381
41.0577
41.746
42.4555
43.1934
43.9639
44.7682
45.605
46.4706
47.3594
48.265
49.18
50.0966
51.0073
51.9048
52.7824
53.6341
54.4548
55.2404
55.9875
56.6938
57.3579
57.9791
58.5577
59.0946
59.5912
60.0496
60.472
60.8611
61.2199
61.5513
61.8584
62.1443
62.4119
62.6641
62.9036
63.133
63.3545
63.5705
63.7828
63.9932
64.2035
64.4151
64.6295
64.8479
65.0717
65.3022
65.5406
65.7885
66.0478
66.3176
66.5981
66.8903
67.1954
67.5147
67.8501
68.203
68.5754
68.9689
69.3849
69.8246
70.2887
70.7774
71.2895
71.8232
72.3746
72.9382
73.506
74.0673
74.6082
75.1109
75.5541
75.9123
76.1559
76.2517
76.164
75.8549
75.287
74.4245
73.2367
71.7002
69.802
67.5423
64.9362
62.015
58.8261
55.4309
51.9016
48.3165
44.7548
41.2904
37.9874
34.897
32.0553
29.4826
27.1858
25.1559
23.3734
21.8169
20.4635
19.2902
18.2746
17.3959
16.6353
15.976
15.4038
14.9063
14.4727
14.0938
13.7615
13.4689
13.21
12.9797
12.7735
12.5875
12.4181
12.2626
12.1188
11.9834
11.8538
11.7282
11.6047
11.4819
11.3584
11.2327
11.1032
10.9683
10.8257
10.6731
10.5073
10.3249
10.1217
9.89326
9.63506
9.34268
9.01223
8.64092
8.22777
7.78401
7.31884
6.83976
6.35657
5.8803
5.422
4.99173
4.59762
4.24545
3.93844
3.67756
3.46186
3.289
3.15567
3.05804
2.99196
2.95405
2.93887
86.6443
48.3982
38.4196
34.4391
32.5596
31.6417
31.2401
31.1471
31.2542
31.5007
31.8504
32.281
32.7769
33.3268
33.9202
34.5472
35.1979
35.8623
36.5315
37.1988
37.8602
38.5153
39.1669
39.8207
40.484
41.165
41.8712
42.6085
43.381
44.1903
45.0359
45.915
46.8233
47.7551
48.7036
49.6618
50.6223
51.5778
52.5213
53.4466
54.3478
55.22
56.059
56.8614
57.6249
58.3478
59.0291
59.6687
60.2672
60.8254
61.3449
61.8275
62.2755
62.6911
63.0769
63.4355
63.7693
64.0809
64.3727
64.6469
64.9056
65.1507
65.384
65.6071
65.8213
66.028
66.2283
66.4233
66.6141
66.8018
66.9874
67.1722
67.3574
67.5468
67.7394
67.9357
68.1368
68.3445
68.561
68.7887
69.0304
69.2894
69.5687
69.8718
70.202
70.5625
70.9562
71.3855
71.8518
72.3553
72.8946
73.4662
74.0638
74.6777
75.2942
75.8953
76.4577
76.9528
77.3466
77.5999
77.6698
77.5101
77.0746
76.3189
75.2045
73.7019
71.7946
69.4822
66.7829
63.7344
60.3929
56.8306
53.1309
49.3825
45.6726
42.0802
38.6726
35.5009
32.5985
29.983
27.6542
25.5978
23.7951
22.224
20.8611
19.6827
18.6656
17.7882
17.0313
16.3778
15.8128
15.3233
14.8979
14.527
14.2021
13.9158
13.6619
13.4347
13.2295
13.0422
12.8691
12.7082
12.5559
12.4092
12.266
12.1247
11.9837
11.8417
11.6975
11.5496
11.3965
11.2366
11.0675
10.8863
10.6898
10.4739
10.2337
9.96435
9.66058
9.31746
8.93093
8.50305
8.04126
7.55131
7.0413
6.52196
6.00566
5.5052
5.03247
4.59742
4.20727
3.86633
3.57622
3.3363
3.14435
2.99708
2.89065
2.82086
2.784
2.77437
88.344
49.3545
39.1331
35.083
33.2065
32.3273
31.9814
31.9492
32.1137
32.4071
32.7881
33.2305
33.7169
34.2355
34.7778
35.3373
35.9089
36.4886
37.0735
37.6625
38.2561
38.8568
39.4689
40.098
40.7502
41.4317
42.1476
42.9019
43.6964
44.5315
45.4053
46.3145
47.2543
48.219
49.202
50.1962
51.1947
52.1904
53.1767
54.1473
55.0967
56.0199
56.9126
57.7716
58.594
59.378
60.1224
60.8266
61.4907
62.1151
62.7009
63.2494
63.7622
64.2412
64.6883
65.1056
65.495
65.8585
66.198
66.5151
66.8115
67.0886
67.3476
67.5895
67.8154
68.0259
68.2219
68.404
68.5728
68.729
68.8735
69.007
69.1306
69.2489
69.3615
69.4688
69.5722
69.6738
69.7761
69.8823
69.9961
70.1216
70.2633
70.4261
70.6152
70.836
71.0941
71.3946
71.7426
72.1423
72.5965
73.1066
73.6716
74.287
74.9449
75.6322
76.3303
77.0139
77.651
78.2022
78.6217
78.8575
78.854
78.5547
77.9054
76.8592
75.3805
73.4502
71.0692
68.2611
65.0726
61.5716
57.8431
53.9823
50.0889
46.2549
42.5644
39.0853
35.8643
32.9315
30.2979
27.9568
25.8942
24.0903
22.5225
21.167
19.9985
18.9929
18.1286
17.3858
16.7468
16.1962
15.7205
15.308
14.9485
14.6332
14.3544
14.1055
13.8806
13.6747
13.4837
13.3052
13.1352
12.9707
12.8094
12.6493
12.4891
12.3276
12.1636
11.9962
11.8241
11.646
11.4598
11.2632
11.0529
10.8251
10.5748
10.2967
9.98478
9.63308
9.23826
8.80236
8.32744
7.81811
7.28224
6.73084
6.17726
5.63582
5.12036
4.64279
4.21213
3.83406
3.5111
3.24309
3.02797
2.8625
2.74282
2.66475
2.62436
2.61595
88.744
49.5931
39.3163
35.2713
33.4381
32.625
32.3578
32.409
32.6547
33.0216
33.4637
33.9513
34.465
34.9921
35.525
36.0593
36.5933
37.1272
37.6626
38.2026
38.7513
39.3138
39.896
40.504
41.1435
41.8199
42.5372
43.298
44.1034
44.9525
45.8433
46.7719
47.7335
48.7223
49.7319
50.7555
51.7864
52.8177
53.8428
54.8558
55.8511
56.8237
57.7693
58.6844
59.566
60.412
61.2207
61.9912
62.7231
63.4165
64.0718
64.6898
65.2717
65.8187
66.3322
66.8137
67.2645
67.6862
68.08
68.447
68.7883
69.1047
69.3969
69.6654
69.9106
70.1328
70.332
70.5085
70.6624
70.7939
70.9032
70.9911
71.0582
71.1074
71.1412
71.1597
71.1641
71.1567
71.1403
71.1185
71.0954
71.076
71.0656
71.0704
71.0969
71.1523
71.2441
71.3804
71.569
71.8177
72.1338
72.5232
72.9905
73.5373
74.1619
74.858
75.6135
76.4092
77.2178
78.003
78.7193
79.3123
79.7202
79.8758
79.711
79.1608
78.1696
76.6966
74.7221
72.251
69.3157
65.9752
62.3123
58.4246
54.4242
50.4113
46.4875
42.7395
39.2254
35.989
33.0545
30.4255
28.0949
26.0468
24.2605
22.7156
21.3838
20.2391
19.2577
18.4175
17.6979
17.0808
16.5506
16.0933
15.6968
15.3507
15.0457
14.7741
14.5289
14.3041
14.0947
13.8981
13.71
13.5271
13.3467
13.1671
12.9868
12.8048
12.6202
12.4322
12.24
12.0427
11.8389
11.6263
11.4024
11.1632
10.9041
10.6192
10.3023
9.94726
9.55155
9.11268
8.63065
8.10855
7.55329
6.97556
6.38915
5.8096
5.25258
4.73211
4.25928
3.84152
3.48254
3.18291
2.94087
2.75322
2.61612
2.52538
2.47697
2.46537
88.1303
49.2893
39.0954
35.1105
33.3506
32.6247
32.4538
32.6053
32.9504
33.4112
33.9377
34.4969
35.0671
35.6345
36.1913
36.7343
37.2637
37.7825
38.2954
38.8087
39.3295
39.8653
40.4237
41.0118
41.6359
42.3013
43.0117
43.7695
44.5752
45.4279
46.3252
47.2633
48.2375
49.242
50.2706
51.3169
52.3741
53.4356
54.4952
55.5466
56.5844
57.6037
58.5999
59.5693
60.5087
61.4157
62.2883
63.1251
63.9253
64.6884
65.4145
66.1038
66.7568
67.3744
67.9574
68.5065
69.0227
69.5069
69.9597
70.3818
70.7736
71.1353
71.4671
71.7689
72.0404
72.2814
72.4914
72.6699
72.8166
72.931
73.013
73.0625
73.0799
73.0664
73.0267
72.9608
72.8698
72.756
72.6223
72.4726
72.3113
72.1436
71.9757
71.8144
71.6671
71.5424
71.4494
71.3979
71.3983
71.4613
71.5978
71.8182
72.1321
72.5472
73.0685
73.6973
74.4294
75.2534
76.1497
77.0884
78.0283
78.9162
79.688
80.2695
80.5806
80.5401
80.0717
79.1117
77.6164
75.5682
72.9804
69.8982
66.3992
62.5742
58.5563
54.4508
50.3648
46.3954
42.6209
39.1017
35.8774
32.9643
30.3645
28.069
26.0605
24.3171
22.8121
21.5176
20.4097
19.4645
18.6575
17.9683
17.3793
16.8737
16.4376
16.0587
15.7262
15.4308
15.1646
14.9205
14.6926
14.4773
14.2705
14.0686
13.8687
13.6689
13.4677
13.2643
13.058
12.8485
12.6352
12.4178
12.1954
11.9663
11.7283
11.4781
11.2108
10.9208
10.6025
10.2499
9.85755
9.42104
8.93837
8.41077
7.84359
7.24659
6.63338
6.02027
5.42445
4.8621
4.34658
3.8874
3.48988
3.15559
2.88327
2.66989
2.51158
2.40415
2.34348
2.32436
86.5962
48.5235
38.5515
34.6856
33.0323
32.4158
32.3585
32.6257
33.0855
33.6563
34.2851
34.9358
35.5845
36.2159
36.8218
37.3989
37.9485
38.4751
38.9857
39.489
39.9942
40.5113
41.0494
41.6174
42.2224
42.8705
43.566
44.3114
45.1075
45.9535
46.8473
47.7853
48.7628
49.7746
50.8146
51.8765
52.9538
54.0401
55.1291
56.2148
57.2916
58.3544
59.3987
60.4204
61.4162
62.3831
63.3189
64.2218
65.0905
65.924
66.7218
67.4838
68.2099
68.9003
69.5552
70.175
70.76
71.3104
71.8264
72.308
72.7551
73.1674
73.5444
73.8854
74.1895
74.456
74.6836
74.8714
75.0183
75.1234
75.1857
75.2046
75.1796
75.1109
75.0036
74.8583
74.6764
74.4601
74.2125
73.9373
73.6393
73.3239
72.9975
72.6672
72.3412
72.0287
71.7398
71.4858
71.2786
71.1313
71.0575
71.0713
71.1867
71.4168
71.7732
72.2647
72.8957
73.6643
74.5605
75.5637
76.6408
77.7445
78.8126
79.7687
80.5246
80.985
81.0546
80.6459
79.689
78.1401
75.9886
73.2591
70.0283
66.3899
62.4545
58.3379
54.1576
50.0238
46.0319
42.2589
38.7619
35.5728
32.7055
30.1591
27.9212
25.9719
24.2859
22.8357
21.5944
20.5354
19.6329
18.8644
18.211
17.6527
17.1733
16.7588
16.3966
16.076
15.7874
15.5231
15.2761
15.0413
14.8151
14.5933
14.373
14.152
13.9289
13.703
13.4739
13.2415
13.0059
12.7671
12.5249
12.2783
12.0254
11.7637
11.4885
11.1959
10.8792
10.5315
10.1461
9.71694
9.2399
8.71408
8.14284
7.53438
6.9015
6.26066
5.63023
5.02833
4.47073
3.96932
3.53142
3.15998
2.85454
2.61234
2.42952
2.30187
2.22516
2.19449
84.3556
47.4573
37.8317
34.1357
32.6134
32.1177
32.1784
32.5617
33.1349
33.8146
34.5458
35.2904
36.0228
36.7266
37.3923
38.0167
38.601
39.1505
39.6732
40.1792
40.6793
41.1851
41.7075
42.2566
42.8411
43.4681
44.1426
44.8682
45.6462
46.4765
47.3574
48.2856
49.2572
50.2669
51.3093
52.3781
53.4672
54.5701
55.6808
56.7931
57.9015
59.0008
60.0863
61.1538
62.1995
63.2203
64.2135
65.177
66.1089
67.008
67.8731
68.7037
69.4991
70.2591
70.9833
71.6716
72.3238
72.9396
73.5186
74.0602
74.564
75.0289
75.454
75.8381
76.1797
76.4773
76.7294
76.9342
77.0902
77.1958
77.2493
77.2496
77.1955
77.086
76.9244
76.7133
76.4543
76.1495
75.802
75.4154
74.9944
74.5443
74.0717
73.5837
73.0888
72.5964
72.1172
71.6628
71.2465
70.8825
70.5863
70.3745
70.2644
70.2734
70.4187
70.7159
71.1777
71.8118
72.6189
73.5901
74.7034
75.9216
77.1895
78.4337
79.5635
80.4741
81.0541
81.1937
80.796
79.7888
78.1349
75.8539
72.993
69.6311
65.8717
61.8331
57.6402
53.4149
49.2674
45.2901
41.5583
38.1211
35.0056
32.2207
29.7607
27.6095
25.7438
24.1368
22.7603
21.5861
20.587
19.7383
19.0177
18.404
17.8786
17.4268
17.0339
16.6872
16.376
16.0912
15.825
15.5711
15.3256
15.0842
14.8435
14.6013
14.3562
14.1077
13.8554
13.5998
13.3412
13.0804
12.8177
12.5528
12.2844
12.0115
11.7299
11.4353
11.1212
10.7804
10.4051
9.98772
9.52214
9.00521
8.43792
7.82638
7.18197
6.52065
5.86138
5.22392
4.62639
4.08326
3.60423
3.19405
2.85334
2.57986
2.36984
2.219
2.12299
2.07716
81.7804
46.3118
37.1139
33.6195
32.2381
31.8608
32.0292
32.514
33.1837
33.9553
34.7729
35.5979
36.4038
37.1731
37.8957
38.5677
39.19
39.7679
40.3095
40.8255
41.3276
41.8282
42.3395
42.8727
43.4378
44.0429
44.6943
45.3964
46.1516
46.9603
47.8217
48.7332
49.6912
50.6911
51.7277
52.7953
53.8877
54.9987
56.1221
57.252
58.3828
59.5092
60.6264
61.7298
62.8157
63.8804
64.9211
65.9352
66.9205
67.8752
68.7979
69.6873
70.5426
71.363
72.1478
72.8963
73.6078
74.2817
74.917
75.5129
76.0682
76.5817
77.0518
77.4768
77.855
78.1843
78.4626
78.6877
78.8576
78.9701
79.0232
79.0151
78.944
78.8087
78.6091
78.3501
78.033
77.66
77.2339
76.7582
76.2375
75.6769
75.0828
74.4623
73.8237
73.1764
72.531
71.8997
71.2956
70.7338
70.2306
69.804
69.4732
69.2586
69.1812
69.2617
69.5195
69.9708
70.6263
71.4885
72.5479
73.7795
75.1395
76.5622
77.9601
79.225
80.2346
80.8614
80.9838
80.5059
79.3733
77.5732
75.1306
72.1073
68.5967
64.7145
60.5888
56.3497
52.119