/*--------------------------------*- C++ -*----------------------------------*\
  =========                 |
  \\      /  F ield         | OpenFOAM: The Open Source CFD Toolbox
   \\    /   O peration     | Website:  https://openfoam.org
    \\  /    A nd           | Version:  9
     \\/     M anipulation  |
\*---------------------------------------------------------------------------*/
FoamFile
{
    format      ascii;
    class       volScalarField;
    location    "0.16";
    object      k;
}
// * * * * * * * * * * * * * * * * * * * * * * * * * * * * * * * * * * * * * //

dimensions      [0 2 -2 0 0 0 0];

internalField   nonuniform List<scalar> 
12225
(
0.266896
0.160946
0.104465
0.0748095
0.0588314
0.0495657
0.0435499
0.0391666
0.0356911
0.0327902
0.0302932
0.0280995
0.026146
0.0243971
0.0228504
0.0215816
0.0214634
0.0311267
0.336277
0.251184
0.197377
0.165376
0.145268
0.131468
0.121139
0.112862
0.105918
0.0999151
0.0946131
0.0898469
0.0855028
0.0815112
0.0778625
0.0746735
0.0734876
0.0812464
0.345657
0.286376
0.240144
0.207414
0.184175
0.167101
0.153964
0.143394
0.134581
0.127044
0.120478
0.114678
0.109502
0.104866
0.100772
0.0974275
0.0965564
0.104139
0.350355
0.305262
0.265866
0.234784
0.210802
0.192155
0.177327
0.165208
0.155051
0.146365
0.138822
0.132198
0.12634
0.121165
0.116691
0.113215
0.112327
0.118489
0.353299
0.316787
0.282876
0.254215
0.230758
0.211669
0.195997
0.182931
0.171855
0.162328
0.154036
0.146756
0.14034
0.134709
0.129902
0.126253
0.125097
0.129686
0.355287
0.324366
0.294757
0.268587
0.246238
0.227382
0.211464
0.197923
0.186288
0.17619
0.167353
0.159574
0.152715
0.14671
0.141611
0.137743
0.136169
0.139221
0.356675
0.329584
0.303334
0.279462
0.258441
0.2402
0.224435
0.210774
0.198872
0.188439
0.179243
0.17111
0.16392
0.15762
0.152268
0.148151
0.146084
0.14776
0.357659
0.333271
0.309642
0.287788
0.268127
0.250697
0.235338
0.221814
0.209877
0.199307
0.189917
0.181565
0.174151
0.167634
0.162071
0.157703
0.15514
0.155623
0.358358
0.335906
0.31432
0.294191
0.275823
0.25928
0.244479
0.231267
0.219471
0.208925
0.199486
0.191037
0.1835
0.176845
0.171122
0.166525
0.163508
0.162987
0.358852
0.337791
0.317786
0.299103
0.281912
0.266258
0.25209
0.239304
0.227777
0.217384
0.208014
0.199577
0.192011
0.185294
0.17947
0.174688
0.171286
0.169944
0.359198
0.33913
0.320336
0.302839
0.286686
0.271878
0.258366
0.24607
0.234897
0.224752
0.215548
0.207215
0.199704
0.192999
0.187136
0.182228
0.178526
0.176536
0.359417
0.339992
0.322033
0.305411
0.290074
0.275973
0.263049
0.251227
0.240426
0.230569
0.221584
0.213413
0.206016
0.199382
0.193536
0.188569
0.184669
0.18222
0.359572
0.340616
0.323298
0.307385
0.292745
0.279282
0.266915
0.255566
0.245161
0.235629
0.226909
0.218952
0.211725
0.205215
0.199444
0.194479
0.190459
0.187681
0.359691
0.341101
0.324313
0.309025
0.295032
0.282194
0.270403
0.259569
0.249614
0.240472
0.232088
0.224417
0.217429
0.211112
0.205479
0.200576
0.196501
0.193471
0.359775
0.341447
0.325064
0.310282
0.29685
0.284586
0.273352
0.263043
0.253572
0.24487
0.236881
0.229563
0.222885
0.216832
0.211408
0.206639
0.202588
0.19941
0.359827
0.34167
0.325566
0.311157
0.298167
0.286385
0.275649
0.265834
0.256842
0.248597
0.241037
0.234118
0.227804
0.222074
0.216924
0.212361
0.20842
0.205207
0.359854
0.341795
0.325861
0.311697
0.299017
0.287596
0.277256
0.267858
0.259293
0.251473
0.244331
0.237813
0.23188
0.226503
0.221664
0.21736
0.213599
0.210453
0.359864
0.341849
0.326001
0.31197
0.299472
0.288276
0.2782
0.269097
0.260849
0.253361
0.246558
0.240381
0.234782
0.229724
0.225181
0.221135
0.217579
0.214555
0.359858
0.341844
0.326007
0.312001
0.299547
0.288417
0.278431
0.269441
0.261328
0.253996
0.247367
0.241375
0.23597
0.231106
0.22675
0.222877
0.219464
0.216538
0.35983
0.341742
0.325793
0.311637
0.299006
0.287686
0.277509
0.268339
0.260065
0.252596
0.245856
0.23978
0.234313
0.229408
0.225027
0.221137
0.217711
0.214761
0.359769
0.341503
0.325275
0.310762
0.297724
0.28598
0.275386
0.265824
0.257194
0.249412
0.242401
0.236095
0.230437
0.225374
0.220862
0.216863
0.213347
0.210315
0.35964
0.340983
0.324178
0.30897
0.295196
0.282732
0.271472
0.261315
0.25217
0.24395
0.236573
0.229967
0.224064
0.218803
0.214132
0.210005
0.206386
0.203267
0.359387
0.339971
0.322124
0.305763
0.290856
0.277365
0.265222
0.254331
0.244588
0.235891
0.228142
0.221249
0.215129
0.209708
0.20492
0.20071
0.197031
0.19387
0.35893
0.33816
0.318616
0.300543
0.284097
0.269313
0.256135
0.244458
0.234143
0.225036
0.217005
0.209928
0.2037
0.198226
0.193424
0.189227
0.185579
0.182458
0.358159
0.335107
0.312977
0.292554
0.274199
0.257971
0.243759
0.231377
0.220621
0.211286
0.203164
0.196091
0.189932
0.184569
0.179903
0.175854
0.172357
0.169381
0.356922
0.330127
0.304213
0.28075
0.260224
0.242583
0.22754
0.214741
0.203846
0.194565
0.18664
0.179834
0.173977
0.16893
0.164579
0.160832
0.15762
0.154903
0.355004
0.321983
0.290641
0.263482
0.240782
0.222077
0.206701
0.194013
0.183479
0.174682
0.167312
0.161089
0.155804
0.151299
0.147454
0.14417
0.141377
0.139032
0.35206
0.308065
0.269002
0.23779
0.213493
0.194622
0.179832
0.168077
0.158594
0.150846
0.14446
0.139177
0.134751
0.131024
0.127876
0.125217
0.122978
0.121121
0.346253
0.281135
0.231931
0.197475
0.173278
0.15591
0.14309
0.133346
0.125743
0.119689
0.114798
0.110829
0.10757
0.104878
0.10265
0.100808
0.0992918
0.0980758
0.300385
0.214546
0.158283
0.121225
0.0967161
0.0803927
0.0693431
0.0616483
0.0560995
0.0519595
0.0487815
0.0462965
0.0443762
0.0428655
0.0416643
0.0407042
0.0399391
0.0393444
0.0446448
0.0796718
0.0987102
0.113184
0.124035
0.131659
0.135929
0.135865
0.138075
0.135936
0.133587
0.131849
0.130551
0.129973
0.129914
0.130353
0.132017
0.137193
0.139949
0.136191
0.13699
0.146735
0.150651
0.145049
0.146014
0.148575
0.151016
0.155224
0.156167
0.156135
0.143037
0.145252
0.152031
0.160002
0.168823
0.178415
0.188692
0.19955
0.21087
0.222532
0.23442
0.24643
0.258471
0.270465
0.282351
0.29408
0.305613
0.316923
0.327991
0.338803
0.349351
0.35963
0.369638
0.379374
0.388838
0.398032
0.406954
0.415606
0.423986
0.432093
0.439926
0.447481
0.454758
0.461754
0.46847
0.474908
0.481076
0.486987
0.492665
0.498145
0.503482
0.508683
0.51351
0.517966
0.522042
0.525718
0.528973
0.531779
0.534107
0.535924
0.537197
0.537888
0.537959
0.53737
0.536079
0.534042
0.531216
0.527557
0.523023
0.517574
0.511171
0.503783
0.495384
0.485956
0.475493
0.463999
0.451496
0.438022
0.423634
0.40841
0.39245
0.375875
0.35883
0.341476
0.323991
0.306563
0.289385
0.272649
0.256539
0.241227
0.226876
0.213643
0.201674
0.191136
0.18237
0.176302
0.175095
0.18066
0.17619
0.172201
0.168964
0.168261
0.159685
0.161238
0.167572
0.165762
0.166061
0.162176
0.16359
0.16711
0.174045
0.172167
0.166931
0.164292
0.164348
0.164633
0.165264
0.167104
0.173813
0.168518
0.174984
0.176058
0.175976
0.172414
0.170455
0.171513
0.178611
0.168235
0.169377
0.17224
0.182105
0.17803
0.175096
0.184591
0.177652
0.166967
0.167682
0.18468
0.1811
0.18594
0.180281
0.161886
0.185055
0.183326
0.179193
0.174911
0.170693
0.166489
0.162264
0.158015
0.153751
0.14948
0.145195
0.140873
0.136477
0.131952
0.127219
0.122178
0.116599
0.110575
0.0599418
0.104393
0.132134
0.151156
0.164521
0.173904
0.180456
0.185512
0.188295
0.190732
0.192078
0.192994
0.194068
0.195601
0.197924
0.201474
0.206635
0.213272
0.221888
0.23149
0.243986
0.258759
0.273095
0.286348
0.300783
0.315338
0.329852
0.3463
0.354626
0.365762
0.380197
0.391576
0.402099
0.41217
0.421942
0.431511
0.440972
0.450433
0.459996
0.469742
0.479727
0.489985
0.500525
0.511338
0.522402
0.533685
0.545151
0.556762
0.568482
0.580279
0.592125
0.603996
0.615874
0.627746
0.639601
0.651431
0.663232
0.674999
0.686727
0.698414
0.710053
0.72164
0.733164
0.744616
0.755984
0.767251
0.7784
0.78941
0.800257
0.810916
0.821369
0.831476
0.841325
0.850901
0.860166
0.869075
0.877575
0.885612
0.893122
0.900037
0.906282
0.911776
0.916432
0.920157
0.922852
0.924414
0.924735
0.923703
0.921206
0.917133
0.911374
0.903825
0.894392
0.882994
0.869567
0.854069
0.836487
0.816838
0.79518
0.771608
0.746265
0.719341
0.69107
0.66173
0.63164
0.601145
0.570611
0.540406
0.510893
0.482409
0.455257
0.429695
0.405931
0.384121
0.364376
0.346714
0.330731
0.314326
0.302605
0.292764
0.284856
0.280296
0.27177
0.266138
0.260035
0.256187
0.254967
0.249786
0.247766
0.246658
0.247011
0.245106
0.243371
0.239633
0.238718
0.238456
0.2386
0.239429
0.241136
0.239925
0.2422
0.242728
0.242798
0.242805
0.240478
0.241233
0.242798
0.240422
0.24097
0.242296
0.244771
0.243923
0.243966
0.243531
0.24069
0.236126
0.235418
0.238092
0.235396
0.234335
0.229722
0.223644
0.226028
0.222412
0.217275
0.211896
0.206535
0.201219
0.195957
0.190763
0.185648
0.180615
0.175646
0.170706
0.165739
0.160671
0.155403
0.149836
0.143839
0.137539
0.0872265
0.137451
0.169058
0.190791
0.206366
0.217815
0.226423
0.23309
0.238207
0.242494
0.246259
0.250018
0.25436
0.259347
0.26552
0.273426
0.283513
0.295958
0.310833
0.327862
0.347035
0.366859
0.386329
0.404992
0.422729
0.439152
0.454149
0.467731
0.479381
0.490074
0.500282
0.509964
0.519342
0.528765
0.53853
0.548845
0.559854
0.571637
0.584216
0.597558
0.611585
0.626189
0.641241
0.656605
0.672147
0.687746
0.703293
0.718703
0.733907
0.748857
0.763524
0.777893
0.791962
0.80574
0.81924
0.832484
0.845495
0.858296
0.870913
0.883367
0.895679
0.907869
0.91995
0.931935
0.943831
0.955642
0.967368
0.979004
0.990544
1.00198
1.0133
1.02447
1.03548
1.04628
1.05684
1.0671
1.07701
1.0865
1.09551
1.10395
1.11175
1.11879
1.12499
1.13023
1.13439
1.13735
1.13896
1.13909
1.13761
1.13435
1.12919
1.12197
1.11256
1.10085
1.08672
1.07011
1.05095
1.02924
1.00501
0.978324
0.949327
0.918203
0.885201
0.850626
0.814839
0.778243
0.741276
0.704395
0.668056
0.632699
0.598724
0.566484
0.536264
0.508268
0.482586
0.459162
0.437771
0.418089
0.40177
0.387755
0.375744
0.365607
0.35541
0.346597
0.33844
0.33243
0.32778
0.322273
0.318066
0.314606
0.312124
0.309282
0.306646
0.303487
0.301705
0.30048
0.299645
0.299224
0.299066
0.298351
0.298857
0.298675
0.298267
0.297745
0.296299
0.29634
0.296552
0.295724
0.295426
0.295351
0.295604
0.294863
0.293708
0.29154
0.289172
0.285244
0.282755
0.280924
0.277455
0.273228
0.268215
0.26315
0.258621
0.25275
0.246293
0.239688
0.233126
0.226666
0.220345
0.214192
0.208227
0.202449
0.196834
0.191337
0.185887
0.180394
0.174749
0.168837
0.162603
0.156165
0.115517
0.171369
0.206633
0.230779
0.248239
0.261298
0.271345
0.279324
0.28593
0.291788
0.297467
0.303583
0.31026
0.317986
0.327338
0.33888
0.352853
0.369233
0.387784
0.407961
0.429028
0.450048
0.470221
0.488998
0.506069
0.521312
0.534837
0.546903
0.557827
0.568135
0.57838
0.588942
0.60008
0.612046
0.625024
0.639097
0.654253
0.670408
0.687422
0.705117
0.723299
0.741768
0.760338
0.778836
0.797117
0.815063
0.832584
0.849617
0.866125
0.882092
0.897521
0.912428
0.926843
0.940801
0.954344
0.967516
0.980361
0.992925
1.00525
1.01738
1.02934
1.04117
1.05291
1.06457
1.07617
1.08773
1.09926
1.11076
1.12224
1.13368
1.14509
1.15646
1.16774
1.17891
1.18991
1.2007
1.21122
1.22141
1.2312
1.24051
1.24924
1.25732
1.26461
1.27102
1.27641
1.28064
1.28358
1.28505
1.28491
1.28299
1.27911
1.27311
1.26483
1.2541
1.2408
1.22479
1.206
1.18435
1.15984
1.1325
1.10243
1.06978
1.03477
0.99771
0.958946
0.9189
0.878042
0.836877
0.795927
0.755707
0.716706
0.679363
0.64405
0.611046
0.580508
0.552469
0.526904
0.503827
0.483609
0.465845
0.450212
0.436426
0.423857
0.412717
0.402849
0.394539
0.387354
0.380626
0.37482
0.369773
0.365484
0.361511
0.357938
0.354604
0.351987
0.349833
0.348053
0.34661
0.345407
0.344281
0.343601
0.342739
0.341809
0.340852
0.339738
0.339138
0.33854
0.337583
0.336654
0.335712
0.334717
0.333186
0.331164
0.328522
0.325539
0.321639
0.317925
0.314014
0.309183
0.30347
0.297265
0.29072
0.283679
0.276008
0.268163
0.260282
0.252501
0.244899
0.237535
0.230454
0.223682
0.217221
0.211045
0.2051
0.199305
0.19356
0.187748
0.181753
0.17555
0.169244
0.143991
0.206389
0.245317
0.271831
0.291101
0.305663
0.317026
0.326241
0.334131
0.341405
0.348718
0.356391
0.364768
0.374422
0.385839
0.399363
0.4151
0.432888
0.452298
0.472678
0.493265
0.513304
0.53218
0.549512
0.565171
0.579269
0.592119
0.60416
0.615877
0.627769
0.640292
0.653765
0.668365
0.684181
0.701213
0.719382
0.738538
0.758489
0.779016
0.799892
0.820898
0.841831
0.862513
0.882792
0.902549
0.921694
0.940165
0.957929
0.974973
0.991303
1.00694
1.02193
1.03631
1.05013
1.06345
1.07632
1.0888
1.10095
1.11282
1.12446
1.13592
1.14724
1.15845
1.16959
1.1807
1.19178
1.20286
1.21395
1.22505
1.23617
1.2473
1.25847
1.26962
1.28073
1.29176
1.30265
1.31335
1.32383
1.33399
1.34379
1.35312
1.3619
1.37003
1.37738
1.38384
1.38926
1.3935
1.3964
1.39779
1.39749
1.39531
1.39107
1.38458
1.37565
1.3641
1.34979
1.33256
1.31231
1.28898
1.26253
1.23301
1.20052
1.16523
1.12738
1.08731
1.04542
1.00217
0.958093
0.913754
0.869727
0.82658
0.784844
0.744983
0.707374
0.672276
0.639833
0.610121
0.583199
0.559126
0.537711
0.51865
0.501678
0.486476
0.47295
0.460964
0.45045
0.441159
0.432817
0.425438
0.418917
0.413178
0.408047
0.403488
0.399424
0.395921
0.392875
0.39022
0.387907
0.385875
0.384077
0.382541
0.381035
0.379564
0.378135
0.376731
0.375487
0.374199
0.372731
0.371166
0.369472
0.367574
0.365266
0.362509
0.359259
0.355528
0.351112
0.346338
0.341022
0.334912
0.327984
0.320447
0.312335
0.303623
0.294385
0.285137
0.275939
0.266909
0.258146
0.249728
0.241717
0.23415
0.227033
0.22034
0.214013
0.207963
0.202082
0.196248
0.190346
0.184363
0.178363
0.172268
0.241354
0.284015
0.313176
0.33453
0.350808
0.363634
0.374145
0.383243
0.391706
0.400024
0.408476
0.417673
0.428132
0.440238
0.454197
0.469995
0.487382
0.505899
0.524955
0.543922
0.562248
0.579546
0.595646
0.610605
0.624675
0.638243
0.651759
0.665664
0.680339
0.696074
0.713034
0.731264
0.750718
0.771276
0.792766
0.814978
0.837687
0.860661
0.883679
0.906538
0.929055
0.951079
0.972485
0.993176
1.01309
1.03217
1.05041
1.06781
1.08439
1.10018
1.11522
1.12957
1.14327
1.15641
1.16902
1.18119
1.19297
1.20442
1.21559
1.22655
1.23733
1.24799
1.25855
1.26906
1.27955
1.29003
1.30053
1.31106
1.32162
1.33222
1.34289
1.3536
1.36432
1.37501
1.38564
1.39616
1.40653
1.41669
1.42659
1.43614
1.44527
1.45389
1.46188
1.46913
1.47552
1.4809
1.48512
1.48801
1.48938
1.48905
1.48682
1.48249
1.47583
1.46665
1.45474
1.43992
1.42204
1.40094
1.37655
1.34883
1.31781
1.28358
1.24632
1.20629
1.16386
1.11946
1.07362
1.02691
0.979946
0.933374
0.887806
0.843808
0.801864
0.762351
0.725526
0.691557
0.660542
0.632503
0.607351
0.584816
0.564648
0.546602
0.530496
0.516155
0.503416
0.492078
0.481959
0.472955
0.464945
0.457833
0.451503
0.445878
0.440877
0.436451
0.43252
0.429021
0.425898
0.423096
0.420568
0.418289
0.416135
0.414069
0.412073
0.410124
0.408213
0.406242
0.404139
0.401893
0.399458
0.396758
0.393682
0.390174
0.386179
0.381631
0.376434
0.370638
0.364135
0.356827
0.348699
0.339834
0.330264
0.320037
0.309325
0.298663
0.288106
0.277784
0.267816
0.258307
0.249337
0.240956
0.233176
0.225973
0.219286
0.213025
0.207072
0.201304
0.195603
0.189952
0.184367
0.199914
0.274514
0.321251
0.353504
0.377331
0.395639
0.410157
0.422092
0.432397
0.441723
0.450387
0.459076
0.468372
0.478738
0.490494
0.503781
0.518549
0.534557
0.551422
0.568686
0.585907
0.602735
0.618975
0.634612
0.649796
0.664809
0.679999
0.695722
0.712291
0.729937
0.748796
0.768902
0.7902
0.812564
0.835823
0.85977
0.884185
0.908845
0.933533
0.958048
0.982208
1.00586
1.02886
1.05112
1.07254
1.09308
1.11271
1.13141
1.14918
1.16606
1.18207
1.19726
1.21169
1.2254
1.23847
1.25096
1.26293
1.27445
1.28557
1.29637
1.30689
1.31718
1.3273
1.33729
1.34718
1.35701
1.36681
1.37661
1.38641
1.39625
1.40611
1.41603
1.42602
1.43605
1.44608
1.4561
1.46606
1.47595
1.4857
1.49528
1.50463
1.51368
1.52236
1.53058
1.53824
1.54523
1.55142
1.55667
1.56083
1.56372
1.56516
1.56494
1.56286
1.55868
1.55218
1.54311
1.53126
1.5164
1.49834
1.47692
1.452
1.42353
1.39152
1.35604
1.31729
1.27554
1.23117
1.18466
1.13659
1.0876
1.03837
0.989581
0.941912
0.895956
0.852213
0.811066
0.772788
0.737551
0.705421
0.676398
0.650248
0.626745
0.605661
0.586785
0.569916
0.554856
0.541413
0.529411
0.518706
0.509161
0.500657
0.493082
0.486336
0.480319
0.474944
0.470127
0.465794
0.461879
0.45832
0.455058
0.452067
0.449247
0.446541
0.44391
0.441315
0.438712
0.436038
0.433236
0.430266
0.427071
0.42358
0.419714
0.415408
0.410588
0.405174
0.399084
0.392275
0.384665
0.3762
0.366867
0.356692
0.34572
0.334006
0.321868
0.309776
0.297819
0.286151
0.274924
0.264269
0.254289
0.245048
0.236569
0.228832
0.221776
0.215305
0.209301
0.203634
0.198183
0.192919
0.187809
0.225141
0.305179
0.356077
0.391618
0.41814
0.438695
0.455089
0.468571
0.479957
0.489706
0.498593
0.507276
0.516304
0.526112
0.536998
0.549105
0.562418
0.576776
0.591917
0.607543
0.623379
0.639237
0.655047
0.670866
0.68686
0.703263
0.720331
0.7383
0.75735
0.777586
0.799033
0.82164
0.845295
0.869838
0.895079
0.920809
0.946816
0.972892
0.998839
1.02448
1.04964
1.07419
1.09801
1.12101
1.14312
1.16428
1.18447
1.20368
1.22191
1.23919
1.25554
1.27102
1.28567
1.29954
1.31271
1.32522
1.33714
1.34854
1.35948
1.37001
1.3802
1.39009
1.39974
1.40919
1.41848
1.42766
1.43674
1.44577
1.45476
1.46373
1.4727
1.48168
1.49072
1.49979
1.50888
1.51796
1.52701
1.53602
1.54495
1.55378
1.56247
1.57096
1.57922
1.58717
1.59474
1.60184
1.60838
1.61422
1.61924
1.62329
1.6262
1.62776
1.62778
1.62602
1.62225
1.61619
1.60759
1.59617
1.58168
1.56388
1.54256
1.51755
1.48875
1.45615
1.4198
1.37989
1.33672
1.2907
1.24235
1.19231
1.14129
1.09003
1.03928
0.98976
0.942092
0.896796
0.854268
0.814783
0.778489
0.745478
0.715572
0.688576
0.664279
0.642463
0.622914
0.605418
0.589774
0.575794
0.563311
0.55217
0.542232
0.53337
0.525463
0.518393
0.512054
0.506347
0.501185
0.496486
0.492177
0.488184
0.484487
0.480985
0.47761
0.474305
0.471021
0.467706
0.464304
0.460764
0.457035
0.453055
0.448759
0.444076
0.438934
0.433253
0.426944
0.419924
0.412116
0.403442
0.393852
0.383326
0.371867
0.359522
0.346347
0.332817
0.319284
0.305888
0.292822
0.280274
0.268408
0.257353
0.247191
0.237957
0.229636
0.222168
0.215457
0.209379
0.203804
0.198604
0.193731
0.189113
0.247439
0.332438
0.387283
0.426072
0.455346
0.478261
0.49667
0.511629
0.52387
0.53426
0.543525
0.552283
0.561061
0.570286
0.58027
0.591199
0.603132
0.616017
0.629727
0.644107
0.659017
0.674378
0.690185
0.706514
0.723497
0.741297
0.760074
0.779956
0.80102
0.823281
0.846697
0.871168
0.896554
0.922682
0.949362
0.976394
1.00358
1.03072
1.05765
1.08418
1.11019
1.13552
1.16009
1.1838
1.20659
1.2284
1.24922
1.26902
1.28781
1.30561
1.32244
1.33835
1.35337
1.36757
1.38098
1.39368
1.40572
1.41717
1.42807
1.43849
1.44848
1.45809
1.46737
1.47638
1.48514
1.49369
1.50208
1.51033
1.51846
1.52649
1.53446
1.54236
1.55028
1.55819
1.56609
1.57395
1.58177
1.58954
1.59726
1.60491
1.61247
1.61993
1.62724
1.63438
1.64131
1.64795
1.65425
1.66011
1.66544
1.67011
1.67398
1.67688
1.67862
1.67898
1.67772
1.67456
1.66922
1.66138
1.65075
1.637
1.61983
1.59898
1.57424
1.54545
1.51256
1.47561
1.4348
1.39042
1.34294
1.29294
1.24112
1.18826
1.13518
1.0827
1.03156
0.982433
0.935846
0.892202
0.851762
0.8147
0.780939
0.750324
0.722672
0.697773
0.67541
0.655362
0.637415
0.621367
0.607031
0.594234
0.582815
0.572628
0.56353
0.555389
0.548076
0.541479
0.535491
0.530017
0.524965
0.52025
0.515847
0.511656
0.507594
0.503596
0.499603
0.49556
0.491413
0.487109
0.482595
0.477811
0.472694
0.467174
0.461179
0.454623
0.447417
0.43947
0.430692
0.420997
0.410328
0.398648
0.38595
0.37227
0.3577
0.342815
0.327842
0.312982
0.298472
0.284543
0.271398
0.259194
0.248037
0.237975
0.229
0.221054
0.214041
0.207835
0.202301
0.197308
0.192791
0.188641
0.266277
0.355494
0.413828
0.455627
0.487555
0.512841
0.533078
0.549446
0.562937
0.574344
0.584337
0.593502
0.602345
0.611294
0.62069
0.630776
0.641695
0.653507
0.666207
0.679758
0.694122
0.70929
0.725289
0.742184
0.760066
0.779031
0.799159
0.8205
0.84306
0.866798
0.89163
0.917432
0.944052
0.971317
0.999041
1.02704
1.05511
1.0831
1.11081
1.13811
1.16485
1.19092
1.2162
1.24062
1.26412
1.28663
1.30813
1.32861
1.34806
1.3665
1.38394
1.40042
1.41597
1.43063
1.44447
1.45752
1.46985
1.4815
1.49253
1.503
1.51295
1.52243
1.53148
1.54016
1.54849
1.55652
1.56427
1.57177
1.57906
1.58615
1.59307
1.59983
1.60651
1.61311
1.61962
1.62604
1.63237
1.63862
1.64478
1.65087
1.65689
1.66283
1.6687
1.67449
1.68019
1.68576
1.69119
1.69641
1.70138
1.70601
1.71019
1.7138
1.71667
1.71861
1.7194
1.71878
1.71644
1.71206
1.70529
1.69574
1.68305
1.66684
1.64679
1.6226
1.59408
1.56113
1.52378
1.48221
1.43677
1.38796
1.33644
1.28299
1.22848
1.17379
1.1198
1.06731
1.017
0.969416
0.924954
0.883868
0.84622
0.811915
0.780809
0.752718
0.727432
0.70473
0.684389
0.666192
0.649935
0.635424
0.622481
0.610936
0.600626
0.591399
0.583109
0.575623
0.568816
0.562575
0.556794
0.551373
0.546263
0.54138
0.536627
0.531929
0.527218
0.522437
0.517532
0.512449
0.507136
0.501535
0.495584
0.48922
0.482368
0.474945
0.466858
0.458012
0.448307
0.437651
0.425968
0.413205
0.399339
0.384383
0.368564
0.352363
0.335971
0.319643
0.303662
0.288303
0.273813
0.260385
0.248152
0.237179
0.227465
0.218956
0.211556
0.205137
0.199562
0.194697
0.19046
0.186718
0.281208
0.373758
0.434994
0.479461
0.513777
0.541028
0.56313
0.58131
0.59647
0.609331
0.620512
0.630556
0.639949
0.649118
0.658428
0.668173
0.678574
0.689785
0.701903
0.714985
0.729072
0.744203
0.760424
0.777789
0.796355
0.816168
0.837254
0.85961
0.883198
0.907944
0.933741
0.960454
0.987928
1.01599
1.04447
1.07318
1.10195
1.1306
1.15899
1.18696
1.21437
1.24112
1.26711
1.29225
1.31647
1.33973
1.36199
1.38322
1.40342
1.4226
1.44076
1.45793
1.47415
1.48944
1.50384
1.51741
1.53018
1.54221
1.55355
1.56422
1.5743
1.5838
1.59279
1.60128
1.60932
1.61694
1.62416
1.63102
1.63754
1.64373
1.64963
1.65526
1.66064
1.66584
1.67086
1.6757
1.68035
1.68484
1.68919
1.69341
1.69753
1.70156
1.70554
1.70947
1.71339
1.71731
1.72122
1.72513
1.72902
1.73286
1.7366
1.74014
1.7434
1.7462
1.74837
1.74967
1.74982
1.74849
1.74531
1.73985
1.73168
1.72034
1.70537
1.68636
1.66296
1.63489
1.60202
1.56437
1.52214
1.47571
1.42566
1.37273
1.3178
1.26181
1.20573
1.1505
1.09696
1.04579
0.997533
0.952572
0.911097
0.873101
0.838502
0.807153
0.778868
0.753433
0.730623
0.710209
0.691972
0.675702
0.661196
0.648266
0.636727
0.626406
0.617137
0.608767
0.60115
0.594155
0.587658
0.581548
0.575737
0.570168
0.564727
0.559327
0.553897
0.548374
0.542704
0.536835
0.530714
0.524289
0.517502
0.510294
0.502593
0.494318
0.485379
0.475676
0.465104
0.453559
0.44095
0.427201
0.412271
0.396171
0.37926
0.361815
0.344062
0.326295
0.30884
0.292022
0.276134
0.261414
0.248024
0.23605
0.225504
0.216335
0.208445
0.201706
0.195982
0.191135
0.187073
0.18365
0.291999
0.386967
0.450322
0.496741
0.53304
0.562429
0.586711
0.60704
0.62425
0.638997
0.651841
0.663279
0.673764
0.683712
0.693499
0.703454
0.713857
0.724932
0.736857
0.749765
0.763759
0.778921
0.795316
0.812997
0.832001
0.852347
0.874029
0.897013
0.921237
0.946609
0.973012
1.00031
1.02834
1.05694
1.08595
1.11519
1.14449
1.17369
1.20264
1.2312
1.25924
1.28665
1.31332
1.33918
1.36416
1.38819
1.41125
1.4333
1.45433
1.47433
1.49331
1.51129
1.52828
1.54432
1.55944
1.57366
1.58704
1.5996
1.6114
1.62246
1.63282
1.64252
1.65159
1.66006
1.66797
1.67533
1.68216
1.6885
1.69436
1.69975
1.7047
1.70923
1.71336
1.71717
1.72067
1.72385
1.72674
1.72935
1.7317
1.73384
1.7358
1.73762
1.73934
1.74101
1.74269
1.74441
1.74622
1.74817
1.75029
1.75259
1.75508
1.75774
1.76052
1.76332
1.76603
1.76845
1.77034
1.7714
1.77126
1.76948
1.76559
1.75905
1.7493
1.7358
1.71803
1.69555
1.66804
1.63532
1.59741
1.55453
1.50713
1.45589
1.40164
1.34536
1.28811
1.23091
1.17476
1.12051
1.06883
1.02026
0.975119
0.933516
0.89545
0.860832
0.829511
0.801297
0.775967
0.753287
0.733026
0.714957
0.698861
0.684525
0.671745
0.660326
0.65008
0.640832
0.632417
0.624682
0.617485
0.610697
0.604207
0.597962
0.591839
0.585742
0.579595
0.573331
0.566895
0.560236
0.553304
0.546053
0.53843
0.530382
0.521845
0.512741
0.502984
0.492474
0.481101
0.468752
0.455318
0.440701
0.424834
0.407832
0.389953
0.371381
0.352368
0.333233
0.314341
0.296065
0.278749
0.262679
0.248057
0.234996
0.223521
0.213586
0.205094
0.197916
0.191915
0.186956
0.18294
0.179717
0.298113
0.394422
0.459325
0.507573
0.545924
0.57754
0.604161
0.626876
0.646443
0.66345
0.678389
0.691698
0.70379
0.715052
0.725855
0.736544
0.747431
0.758793
0.770866
0.783845
0.797885
0.813109
0.829609
0.847448
0.866663
0.887265
0.909233
0.932524
0.957062
0.98275
1.00947
1.03708
1.06543
1.09437
1.12372
1.15333
1.18303
1.21266
1.24209
1.27117
1.29979
1.32781
1.35516
1.38173
1.40746
1.4323
1.45618
1.47909
1.50099
1.52189
1.54176
1.56063
1.5785
1.5954
1.61133
1.62634
1.64045
1.65369
1.66609
1.67768
1.68849
1.69855
1.70787
1.71649
1.72442
1.73168
1.73828
1.74425
1.74959
1.75432
1.75845
1.76199
1.76495
1.76744
1.76946
1.77101
1.77211
1.7728
1.77309
1.77304
1.77269
1.7721
1.77133
1.77045
1.76952
1.76864
1.76787
1.76731
1.76702
1.76709
1.76757
1.76851
1.76994
1.77182
1.77411
1.7767
1.7794
1.78197
1.78408
1.7853
1.78515
1.78304
1.77834
1.77039
1.75852
1.74211
1.72062
1.69367
1.66106
1.62282
1.57924
1.53086
1.47845
1.42299
1.36557
1.30731
1.24933
1.19264
1.13807
1.08627
1.03773
0.992704
0.951278
0.91344
0.879093
0.848092
0.820221
0.795247
0.772934
0.753044
0.735337
0.719583
0.705556
0.693037
0.68182
0.671704
0.662504
0.654045
0.646166
0.638719
0.631569
0.624662
0.617868
0.611083
0.604224
0.597223
0.590022
0.582573
0.574831
0.566753
0.558297
0.549416
0.540054
0.530143
0.519602
0.508335
0.496228
0.483161
0.469012
0.453658
0.43707
0.419374
0.400673
0.381133
0.361005
0.340621
0.320374
0.30068
0.281938
0.264486
0.248573
0.234346
0.221848
0.211043
0.201834
0.194091
0.187677
0.182462
0.178345
0.175183
0.299779
0.39698
0.46314
0.512976
0.553248
0.587063
0.61609
0.641339
0.663488
0.683044
0.700424
0.716001
0.730131
0.743163
0.755446
0.767319
0.77911
0.791125
0.803641
0.8169
0.831105
0.846418
0.862965
0.880832
0.900071
0.920699
0.942701
0.966031
0.990619
1.01637
1.04316
1.07086
1.09933
1.12841
1.15795
1.18779
1.21776
1.24773
1.27755
1.30708
1.33621
1.36481
1.39278
1.42005
1.44652
1.47215
1.49688
1.52066
1.54347
1.56529
1.58612
1.60593
1.62475
1.64258
1.65943
1.67532
1.69027
1.7043
1.71743
1.72968
1.74107
1.75162
1.76135
1.77026
1.77837
1.7857
1.79223
1.79799
1.80298
1.8072
1.81066
1.81336
1.81532
1.81659
1.81723
1.81723
1.81662
1.81542
1.81368
1.81143
1.80874
1.80567
1.80229
1.79869
1.79495
1.79118
1.7875
1.784
1.78083
1.77809
1.7759
1.77438
1.77361
1.77367
1.77458
1.77631
1.77878
1.78182
1.78517
1.78847
1.79124
1.7929
1.79278
1.7901
1.78409
1.77392
1.75888
1.73833
1.71185
1.67921
1.64051
1.59613
1.54672
1.4932
1.43671
1.37839
1.31947
1.26115
1.20433
1.14984
1.09831
1.05014
1.00555
0.964618
0.9273
0.893553
0.863158
0.835886
0.811513
0.789793
0.77047
0.753292
0.738018
0.724406
0.712224
0.701253
0.691284
0.682119
0.673577
0.66549
0.657705
0.650151
0.642699
0.635237
0.627676
0.619943
0.611982
0.603745
0.595193
0.58629
0.577002
0.567292
0.557116
0.546417
0.535121
0.523139
0.51036
0.496658
0.4819
0.465983
0.44891
0.430675
0.411332
0.391017
0.369961
0.348493
0.327022
0.306
0.285874
0.26704
0.249801
0.234344
0.220742
0.20897
0.198932
0.1905
0.183537
0.177916
0.173543
0.17029
0.298023
0.395632
0.462692
0.513842
0.555872
0.591818
0.623263
0.651125
0.675995
0.698293
0.718356
0.736485
0.752973
0.768121
0.782242
0.795656
0.808689
0.82166
0.83487
0.848595
0.863078
0.87852
0.895084
0.912888
0.932009
0.952484
0.974316
0.99747
1.02189
1.04748
1.07413
1.10173
1.13014
1.1592
1.18877
1.2187
1.24884
1.27903
1.30914
1.33904
1.3686
1.39771
1.42627
1.45418
1.48137
1.50777
1.53332
1.55797
1.58169
1.60446
1.62624
1.64704
1.66684
1.68565
1.70346
1.7203
1.73616
1.75107
1.76502
1.77803
1.79012
1.80129
1.81154
1.82088
1.82932
1.83685
1.84347
1.84918
1.85398
1.85786
1.86082
1.86286
1.86398
1.86419
1.8636
1.8622
1.86001
1.85705
1.85338
1.84902
1.84405
1.83854
1.83256
1.82621
1.81959
1.81282
1.80603
1.79936
1.79297
1.78701
1.78166
1.77707
1.77341
1.77083
1.76944
1.76933
1.77049
1.77289
1.77636
1.78062
1.78527
1.78976
1.79342
1.79544
1.7949
1.79087
1.78239
1.76861
1.74883
1.72258
1.68969
1.65033
1.60504
1.55454
1.50014
1.44294
1.38417
1.32507
1.26673
1.21012
1.15606
1.10512
1.05765
1.01385
0.973784
0.937398
0.90454
0.874994
0.84857
0.825035
0.804101
0.785503
0.76899
0.754293
0.741159
0.729347
0.718625
0.708774
0.69959
0.690887
0.682494
0.674309
0.666214
0.658087
0.649834
0.641378
0.632663
0.623643
0.614283
0.604556
0.594437
0.583901
0.572919
0.561442
0.549412
0.536752
0.523349
0.509081
0.493856
0.477575
0.460154
0.441544
0.421754
0.400877
0.379112
0.356768
0.334251
0.312038
0.290618
0.270443
0.251875
0.235153
0.220382
0.207558
0.196592
0.187356
0.179714
0.173546
0.168763
0.165259
0.29321
0.390869
0.458568
0.510868
0.554589
0.592671
0.626592
0.657173
0.684908
0.710129
0.733089
0.754014
0.773132
0.790688
0.806951
0.822213
0.836784
0.850981
0.865116
0.879489
0.894374
0.910008
0.92659
0.944277
0.963178
0.983362
1.00486
1.02765
1.0517
1.07694
1.10326
1.13057
1.15873
1.18761
1.21706
1.24694
1.27711
1.30741
1.33771
1.36788
1.3978
1.42735
1.45643
1.48494
1.5128
1.53994
1.56629
1.5918
1.61643
1.64013
1.66289
1.68469
1.7055
1.72533
1.74416
1.76199
1.77883
1.79467
1.80953
1.82339
1.83626
1.84814
1.85902
1.86891
1.87779
1.88566
1.89251
1.89831
1.90307
1.90676
1.90938
1.91091
1.91135
1.91069
1.90902
1.90635
1.9027
1.89811
1.89261
1.88625
1.8791
1.87122
1.8627
1.85363
1.84412
1.83431
1.82433
1.81434
1.80452
1.79505
1.78615
1.77802
1.77089
1.76498
1.76048
1.75758
1.75642
1.75704
1.75943
1.76344
1.76877
1.77497
1.7814
1.78727
1.7916
1.79332
1.79131
1.78446
1.77181
1.75259
1.72635
1.69297
1.65291
1.60686
1.55578
1.50081
1.44321
1.38426
1.3252
1.26715
1.2111
1.1578
1.10777
1.06135
1.01868
0.979781
0.944562
0.912851
0.884448
0.859109
0.836553
0.816517
0.798759
0.782973
0.76888
0.756227
0.744755
0.734222
0.724403
0.715093
0.706107
0.697293
0.688557
0.679767
0.670819
0.661637
0.65216
0.642348
0.632171
0.621608
0.610646
0.599271
0.587472
0.575214
0.562452
0.549128
0.53513
0.520411
0.504835
0.488281
0.470634
0.451807
0.431761
0.410541
0.388299
0.365307
0.341957
0.318729
0.296146
0.274711
0.254847
0.236848