/*--------------------------------*- C++ -*----------------------------------*\
  =========                 |
  \\      /  F ield         | OpenFOAM: The Open Source CFD Toolbox
   \\    /   O peration     | Website:  https://openfoam.org
    \\  /    A nd           | Version:  9
     \\/     M anipulation  |
\*---------------------------------------------------------------------------*/
FoamFile
{
    format      ascii;
    class       volScalarField;
    location    "0.16";
    object      nut;
}
// * * * * * * * * * * * * * * * * * * * * * * * * * * * * * * * * * * * * * //

dimensions      [0 2 -1 0 0 0 0];

internalField   nonuniform List<scalar> 
12225
(
3.05241e-05
1.84082e-05
1.19476e-05
8.55572e-06
6.7289e-06
5.67011e-06
4.98313e-06
4.48293e-06
4.0866e-06
3.75609e-06
3.47186e-06
3.22246e-06
3.00073e-06
2.80269e-06
2.62834e-06
2.48629e-06
2.43004e-06
3.41589e-06
0.000163035
0.000102595
8.27916e-05
7.37281e-05
6.87416e-05
6.53586e-05
6.25329e-05
5.99195e-05
5.74509e-05
5.51251e-05
5.29386e-05
5.0883e-05
4.89557e-05
4.71736e-05
4.56021e-05
4.44224e-05
4.41977e-05
4.48374e-05
0.000338492
0.000220995
0.000179572
0.000158863
0.000146537
0.000138124
0.000131541
0.000125851
0.000120681
0.000115884
0.000111393
0.000107176
0.000103231
9.9606e-05
9.64555e-05
9.41671e-05
9.37559e-05
9.61395e-05
0.000502825
0.000350016
0.000286206
0.000251884
0.000230539
0.000215788
0.000204533
0.000195198
0.000187004
0.000179559
0.000172656
0.000166186
0.000160112
0.000154481
0.000149493
0.000145648
0.000144072
0.000146019
0.000628229
0.000471821
0.000392767
0.00034653
0.000316422
0.000295143
0.000278927
0.000265709
0.000254353
0.000244214
0.000234922
0.000226263
0.000218134
0.000210552
0.000203708
0.000198104
0.000194774
0.000195171
0.000713913
0.000576007
0.000491938
0.00043794
0.00040085
0.000373811
0.000352944
0.000335964
0.000321507
0.000308741
0.000297153
0.000286423
0.00027638
0.000266984
0.000258384
0.000251009
0.00024572
0.000243963
0.000768767
0.000658643
0.000578776
0.000522151
0.000480855
0.000449588
0.000424934
0.000404691
0.000387445
0.000372277
0.000358583
0.000345967
0.000334194
0.000323171
0.000312984
0.000303963
0.000296788
0.000292813
0.000802476
0.000720324
0.000650749
0.000596282
0.000553915
0.000520423
0.000493265
0.000470599
0.000451134
0.000433973
0.000418491
0.000404262
0.000391008
0.000378595
0.000367048
0.000356602
0.000347787
0.000341813
0.000822648
0.000764115
0.000707477
0.000658702
0.000618153
0.000584558
0.00055641
0.0005324
0.000511497
0.000492928
0.000476117
0.00046065
0.000446244
0.00043274
0.00042012
0.000408541
0.000398421
0.00039081
0.00083451
0.000793936
0.000750174
0.000709027
0.000672487
0.000640692
0.000613077
0.000588904
0.000567479
0.000548216
0.00053065
0.000514421
0.00049927
0.000485042
0.000471695
0.000459333
0.000448293
0.000439468
0.000841408
0.000813549
0.000780981
0.000747923
0.00071667
0.000688107
0.000662342
0.000639135
0.000618126
0.000598949
0.000581275
0.000564831
0.000549412
0.000534883
0.000521202
0.000508448
0.000496899
0.000487308
0.000845067
0.000825035
0.000800574
0.000774346
0.000748274
0.000723421
0.000700225
0.000678758
0.000658911
0.000640501
0.000623331
0.00060722
0.000592019
0.000577634
0.000564034
0.000551291
0.000539647
0.000529741
0.000847315
0.000832633
0.00081443
0.000794116
0.000773038
0.000752144
0.000731983
0.000712809
0.000694689
0.000677592
0.000661438
0.000646135
0.0006316
0.00061778
0.00060467
0.000592345
0.000581021
0.000571238
0.000848791
0.000837957
0.000824787
0.000809784
0.000793669
0.000777097
0.000760554
0.000744348
0.000728649
0.000713532
0.000699019
0.0006851
0.000671759
0.000658991
0.000646822
0.000635337
0.000624731
0.000615449
0.000849677
0.00084134
0.000831792
0.000821033
0.000809299
0.000796912
0.00078418
0.00077135
0.000758603
0.00074606
0.000733799
0.00072187
0.00071031
0.000699156
0.000688463
0.000678325
0.000668917
0.000660603
0.000850159
0.00084327
0.000836018
0.000828228
0.000819867
0.000811003
0.000801756
0.000792255
0.000782622
0.00077296
0.000763356
0.00075388
0.000744594
0.000735561
0.000726851
0.000718561
0.000710841
0.000703975
0.000850391
0.000844236
0.000838245
0.000832231
0.000826074
0.000819718
0.000813157
0.000806416
0.000799544
0.000792594
0.000785625
0.000778697
0.000771868
0.0007652
0.000758761
0.000752638
0.000746945
0.000741885
0.000850479
0.000844621
0.000839175
0.000833992
0.000828953
0.000823973
0.000819004
0.000814026
0.000809041
0.000804069
0.00079914
0.000794291
0.000789564
0.000785004
0.000780665
0.000776608
0.000772905
0.000769679
0.000850464
0.000844579
0.000839108
0.000833924
0.000828933
0.000824081
0.000819345
0.000814724
0.000810235
0.000805904
0.00080176
0.000797837
0.000794168
0.000790785
0.000787723
0.000785015
0.000782691
0.0007808
0.000850267
0.000843793
0.000837346
0.00083083
0.000824246
0.00081766
0.000811172
0.000804882
0.000798883
0.000793251
0.000788044
0.000783305
0.000779064
0.000775341
0.000772147
0.000769491
0.000767364
0.000765751
0.000849712
0.000841631
0.000832713
0.000823097
0.000813097
0.00080306
0.00079329
0.000784015
0.000775393
0.000767519
0.000760445
0.00075419
0.00074875
0.00074411
0.000740245
0.000737125
0.000734706
0.000732924
0.000848194
0.000836063
0.000821603
0.00080584
0.00078983
0.000774349
0.000759893
0.000746717
0.000734922
0.000724517
0.000715456
0.000707666
0.000701063
0.00069556
0.000691074
0.000687527
0.000684833
0.000682882
0.000844279
0.00082305
0.000798061
0.000772359
0.000747938
0.000725833
0.000706406
0.000689578
0.000675146
0.000662872
0.000652514
0.000643849
0.00063668
0.000630836
0.000626168
0.000622551
0.000619865
0.000617967
0.000834646
0.000795357
0.000753775
0.000715435
0.000682234
0.000654335
0.00063124
0.00061232
0.000596843
0.000584125
0.000573699
0.00056519
0.000558302
0.000552799
0.000548489
0.00054522
0.000542856
0.00054124
0.000812116
0.000742067
0.000680007
0.000630161
0.000591177
0.000560829
0.000537122
0.000518504
0.000503862
0.000492317
0.000483082
0.000475696
0.000469819
0.000465195
0.00046163
0.000458971
0.000457094
0.000455855
0.000762687
0.00065079
0.000571992
0.000517393
0.000478685
0.000450594
0.000429758
0.000414
0.00040191
0.000392605
0.000385405
0.000379707
0.000375207
0.000371681
0.000368966
0.000366941
0.000365511
0.00036457
0.000663755
0.000514761
0.000433989
0.000385243
0.000353487
0.000331795
0.000316397
0.000305084
0.000296538
0.000289972
0.000284955
0.000281011
0.000277857
0.000275335
0.000273338
0.000271791
0.000270642
0.000269831
0.000492507
0.000343946
0.000281402
0.000247422
0.000226697
0.000213273
0.000204086
0.000197435
0.000192384
0.000188423
0.000185276
0.000182814
0.000180759
0.000179027
0.000177572
0.000176366
0.000175394
0.000174637
0.00026215
0.00017134
0.000137716
0.000120199
0.000109998
0.000103716
9.953e-05
9.64724e-05
9.40731e-05
9.21127e-05
9.04864e-05
8.9173e-05
8.80431e-05
8.70487e-05
8.61832e-05
8.54424e-05
8.48244e-05
8.43321e-05
5.96867e-05
4.26314e-05
3.14539e-05
2.40906e-05
1.92194e-05
1.59738e-05
1.37758e-05
1.22444e-05
1.11394e-05
1.03144e-05
9.68034e-06
9.18318e-06
8.804e-06
8.50142e-06
8.2595e-06
8.06518e-06
7.91002e-06
7.79104e-06
1.33353e-05
0.000110157
0.000137056
0.000157628
0.000173239
0.000184515
0.000191707
0.000196532
0.000197466
0.000197745
0.000193213
0.000189104
0.000185906
0.000184256
0.000183713
0.000184217
0.000187793
0.000196524
0.000200006
4.28303e-05
4.38237e-05
0.000214756
0.000224612
4.77052e-05
4.63963e-05
4.69356e-05
4.8093e-05
0.000239416
4.96133e-05
4.8555e-05
4.69426e-05
4.59399e-05
4.67975e-05
4.79423e-05
4.92072e-05
5.05606e-05
5.19813e-05
5.34477e-05
5.49388e-05
5.64354e-05
5.79208e-05
5.93816e-05
6.08072e-05
6.21901e-05
6.35251e-05
6.48092e-05
6.60408e-05
6.72197e-05
6.83465e-05
6.94226e-05
7.04495e-05
7.14293e-05
7.2364e-05
7.32557e-05
7.41063e-05
7.49177e-05
7.56917e-05
7.64297e-05
7.71331e-05
7.78033e-05
7.84411e-05
7.90476e-05
7.96236e-05
8.01697e-05
8.06866e-05
8.11752e-05
8.16362e-05
8.20705e-05
8.24793e-05
8.28637e-05
8.32246e-05
8.35996e-05
8.39441e-05
8.42591e-05
8.45454e-05
8.48023e-05
8.5029e-05
8.52243e-05
8.53867e-05
8.55144e-05
8.56056e-05
8.56582e-05
8.56697e-05
8.56377e-05
8.55592e-05
8.54313e-05
8.52508e-05
8.5014e-05
8.47173e-05
8.43568e-05
8.39284e-05
8.34278e-05
8.28509e-05
8.21932e-05
8.14505e-05
8.06187e-05
7.96942e-05
7.86738e-05
7.7555e-05
7.63362e-05
7.50171e-05
7.35989e-05
7.20846e-05
7.04793e-05
6.87906e-05
6.70286e-05
6.52062e-05
6.33384e-05
6.1443e-05
5.95394e-05
5.76498e-05
5.57981e-05
5.40138e-05
5.2356e-05
5.09906e-05
5.03004e-05
5.07366e-05
5.06348e-05
4.93789e-05
4.79984e-05
4.71867e-05
0.000206945
4.16236e-05
4.26117e-05
4.3865e-05
4.38655e-05
0.000198075
4.34623e-05
4.37646e-05
4.4405e-05
0.000210437
0.000205562
0.000194297
4.24923e-05
4.2482e-05
4.25215e-05
4.27536e-05
4.3823e-05
0.000201948
4.36888e-05
0.000206445
0.000206901
0.000203611
0.000194382
4.21169e-05
4.30964e-05
0.000201066
4.18345e-05
4.16005e-05
4.23342e-05
0.000206109
0.000202764
0.000198018
0.000205914
0.000198371
3.85717e-05
3.92113e-05
0.000203433
0.00020252
0.000202321
0.000194999
0.000174292
0.000196087
0.000193935
0.000188815
0.000183379
0.000177994
0.000172685
0.00016744
0.000162253
0.000157131
0.000152072
0.000147066
0.000142088
0.000137098
0.00013204
0.000126834
0.000121378
0.000115446
0.000109107
1.78858e-05
7.68206e-05
0.000134373
0.000183525
0.000223945
0.000255099
0.000275359
0.000283384
0.000291988
0.00028937
0.000284603
0.000280413
0.000277025
0.000273873
0.000271203
0.000270203
0.000273232
0.000282555
0.000282281
0.000254371
0.000256083
0.000286955
0.000291468
0.000266863
0.000263
0.000264896
0.000269935
0.000285113
0.000268046
0.000264496
0.000267344
0.000266812
0.000266623
0.000267272
0.000268742
0.000271005
0.000274038
0.000277824
0.000282341
0.000287555
0.000293422
0.00029989
0.000306896
0.000314373
0.000322252
0.000330464
0.000338946
0.000347638
0.000356492
0.000365467
0.000374529
0.000383658
0.000392838
0.000402061
0.000411326
0.000420636
0.000429995
0.000439412
0.000448893
0.000458444
0.000468069
0.000477769
0.000487536
0.000497357
0.000507209
0.000517054
0.000526841
0.000536494
0.000545912
0.000554967
0.000563525
0.000571343
0.000579129
0.000586952
0.000594812
0.000602697
0.000610592
0.000618482
0.000626345
0.000634157
0.000641893
0.000649522
0.000657008
0.000664313
0.000671396
0.000678207
0.000684695
0.000690804
0.000696471
0.000701631
0.000706211
0.000710137
0.000713331
0.000715709
0.00071719
0.000717688
0.000717121
0.000715409
0.000712476
0.000708255
0.000702689
0.000695731
0.000687353
0.000677542
0.000666302
0.00065366
0.000639658
0.000624354
0.000607817
0.000590122
0.00057135
0.0005516
0.000531034
0.000509955
0.000488817
0.000467762
0.000443988
0.000403893
0.000386813
0.000374193
0.00037156
0.000411683
0.000341872
0.000333353
0.000318594
0.000321091
0.000364879
0.000304378
0.000304351
0.00032197
0.000413214
0.000397597
0.000352913
0.000287353
0.00028364
0.00028521
0.000290736
0.000309443
0.000384663
0.000317736
0.0004131
0.000415398
0.000399773
0.000356907
0.00028998
0.000306197
0.000388716
0.000286867
0.00028706
0.000308106
0.000435658
0.000418658
0.000399251
0.000448435
0.00040015
0.000277545
0.00028952
0.000458318
0.000460548
0.000470428
0.000441838
0.000339829
0.000444814
0.000452243
0.000443061
0.000431533
0.000419665
0.000407924
0.000396463
0.000385336
0.000374556
0.000364103
0.000353924
0.000343928
0.000333976
0.000323882
0.000313384
0.000302143
0.00028941
0.000272366
2.6086e-05
9.83199e-05
0.000172759
0.000238607
0.000294556
0.000340584
0.000376833
0.000403854
0.000423226
0.000435339
0.000441838
0.000444376
0.0004441
0.000440991
0.000436486
0.000432038
0.000428951
0.000427551
0.000425638
0.00042202
0.000422515
0.000427026
0.000428494
0.000426616
0.000426519
0.000427511
0.000429018
0.000430733
0.000429607
0.000430199
0.000432854
0.000437141
0.000443247
0.000451285
0.000461302
0.000473301
0.000487235
0.000503009
0.00052048
0.000539467
0.000559756
0.000581115
0.000603305
0.000626094
0.000649264
0.000672619
0.000695993
0.000719252
0.000742292
0.000765039
0.000787444
0.000809483
0.000831151
0.000852454
0.00087341
0.000894045
0.000914385
0.000934459
0.000954291
0.000973904
0.000993313
0.00101252
0.00103154
0.00105034
0.00106891
0.0010872
0.00110519
0.0011228
0.00113999
0.0011567
0.00117291
0.00118881
0.00120468
0.00122058
0.00123651
0.00125244
0.00126835
0.00128421
0.00129999
0.00131562
0.00133108
0.0013463
0.00136122
0.00137577
0.00138986
0.0014034
0.00141631
0.00142847
0.00143976
0.00145006
0.00145924
0.00146714
0.00147363
0.00147855
0.00148173
0.00148303
0.00148228
0.00147933
0.00147405
0.00146631
0.00145601
0.00144306
0.00142741
0.00140904
0.00138795
0.0013642
0.00133785
0.00130898
0.00127773
0.00124421
0.00120859
0.00117111
0.00113211
0.00109216
0.00105201
0.0010121
0.000971297
0.000926358
0.000892148
0.000863502
0.000842542
0.000830571
0.000789167
0.000769754
0.000751378
0.000742758
0.000743511
0.00071566
0.000712462
0.000722609
0.00074724
0.000734476
0.000709193
0.000679521
0.000674616
0.000675841
0.000681846
0.000696457
0.000720317
0.00070453
0.000734622
0.000735652
0.000726708
0.00070656
0.000680905
0.000692398
0.0007158
0.000674197
0.000675727
0.000695735
0.00074334
0.000734966
0.000728486
0.000745144
0.000715713
0.000657302
0.000667955
0.000740702
0.000739159
0.000739614
0.000711894
0.000648611
0.000702952
0.000704678
0.000690326
0.000672803
0.000654738
0.000636845
0.000619389
0.000602484
0.000586169
0.000570425
0.000555177
0.000540284
0.000525534
0.000510639
0.000495214
0.000478751
0.000460404
0.000438391
3.46426e-05
0.000124796
0.000219009
0.000301473
0.000370732
0.000427493
0.000472742
0.000507519
0.000532943
0.000550122
0.000560326
0.000564929
0.00056458
0.000560709
0.000554883
0.000548529
0.000543087
0.000539345
0.000537253
0.000536715
0.000538039
0.000540754
0.000543647
0.000546456
0.000549744
0.000553633
0.000558243
0.000563759
0.000570326
0.000578925
0.000590139
0.000604248
0.000621344
0.000641425
0.000664418
0.000690171
0.000718452
0.000748963
0.000781357
0.000815261
0.000850296
0.000886094
0.000922314
0.000958653
0.00099485
0.00103069
0.00106601
0.00110067
0.0011346
0.00116775
0.00120008
0.0012316
0.00126233
0.00129229
0.00132153
0.00135008
0.00137798
0.00140529
0.00143204
0.00145827
0.00148399
0.00150924
0.00153402
0.00155835
0.00158223
0.00160564
0.00162859
0.00165107
0.00167306
0.00169459
0.00171564
0.00173652
0.00175731
0.00177801
0.00179862
0.00181911
0.00183945
0.00185959
0.0018795
0.00189911
0.00191837
0.00193721
0.00195555
0.00197329
0.00199035
0.0020066
0.00202193
0.00203621
0.0020493
0.00206103
0.00207124
0.00207976
0.00208641
0.002091
0.00209334
0.00209324
0.00209052
0.002085
0.00207653
0.00206498
0.00205023
0.00203221
0.0020109
0.00198629
0.00195844
0.00192744
0.00189341
0.00185651
0.00181691
0.0017748
0.00173039
0.00168394
0.00163581
0.00158653
0.00153678
0.00148715
0.00143782
0.00138887
0.00134427
0.00130382
0.00126818
0.00123627
0.00120049
0.00117314
0.00114931
0.00112989
0.00111413
0.00109508
0.00108569
0.00108249
0.00108152
0.00107013
0.00105532
0.00104171
0.0010366
0.00103528
0.00103679
0.00104132
0.00104635
0.00104258
0.00104926
0.00104866
0.00104403
0.00103578
0.00102762
0.00102987
0.00103248
0.00101815
0.00101783
0.00102479
0.00103561
0.00102909
0.00102364
0.00102352
0.00100573
0.000981147
0.000980042
0.000996021
0.000987121
0.000977922
0.000953498
0.000916508
0.000929339
0.000919744
0.000899623
0.000876801
0.00085351
0.000830479
0.00080801
0.00078625
0.000765259
0.000745024
0.000725459
0.000706394
0.000687574
0.000668657
0.000649209
0.000628687
0.000606369
0.000581298
4.32714e-05
0.000153062
0.00026647
0.000363953
0.000444511
0.000509587
0.000560819
0.000599746
0.000627827
0.000646432
0.000657048
0.000660973
0.000659701
0.000655083
0.000648887
0.000642685
0.000637715
0.000634721
0.000633936
0.000635272
0.000638482
0.000643179
0.00064896
0.000655697
0.000663553
0.00067279
0.000683765
0.000696897
0.000712634
0.000731483
0.00075382
0.000779815
0.000809434
0.000842502
0.000878744
0.000917804
0.000959267
0.00100268
0.00104759
0.00109354
0.00114011
0.00118691
0.0012336
0.0012799
0.00132556
0.0013704
0.00141427
0.00145709
0.00149877
0.00153928
0.00157863
0.00161681
0.00165385
0.00168979
0.00172467
0.00175854
0.00179145
0.00182346
0.0018546
0.00188492
0.00191447
0.00194328
0.00197137
0.00199879
0.00202554
0.00205166
0.00207715
0.00210205
0.00212635
0.00215009
0.00217327
0.00219619
0.00221887
0.00224131
0.00226347
0.00228533
0.00230686
0.00232802
0.00234876
0.00236903
0.00238876
0.00240789
0.00242634
0.00244401
0.00246081
0.00247663
0.00249134
0.00250481
0.00251689
0.00252743
0.00253626
0.0025432
0.00254806
0.00255067
0.00255081
0.00254832
0.00254299
0.00253467
0.0025232
0.00250845
0.00249034
0.0024688
0.00244384
0.00241549
0.00238384
0.00234903
0.00231125
0.00227071
0.00222764
0.00218228
0.00213487
0.00208566
0.00203495
0.00198313
0.00193063
0.00187796
0.00182556
0.00177395
0.00172445
0.00167786
0.00163469
0.00159471
0.00155669
0.00152349
0.00149395
0.00146789
0.00144518
0.00142484
0.00140956
0.00139788
0.00138753
0.00137535
0.00136329
0.00135319
0.00134665
0.00134238
0.00133972
0.00133819
0.00133649
0.00133304
0.00133206
0.00132939
0.00132525
0.00131984
0.00131459
0.00131155
0.00130774
0.00129978
0.00129571
0.00129338
0.00129036
0.0012817
0.00127282
0.00126416
0.00124874
0.00123151
0.0012205
0.0012129
0.00119695
0.00117988
0.00115536
0.00112671
0.00111628
0.00109648
0.00107084
0.0010434
0.00101574
0.000988492
0.000961955
0.000936277
0.000911518
0.000887662
0.000864604
0.000842153
0.000820027
0.000797863
0.000775224
0.000751601
0.000726455
0.000699306
5.18528e-05
0.00018048
0.000310988
0.000421808
0.00051233
0.000584565
0.000640695
0.00068274
0.000712588
0.000732091
0.000742915
0.000746654
0.000745352
0.000741006
0.000735463
0.000730283
0.000726627
0.00072519
0.000726243
0.000729751
0.000735526
0.000743344
0.000753061
0.000764702
0.000778465
0.00079467
0.000813706
0.000835969
0.000861811
0.000891496
0.000925143
0.000962698
0.00100394
0.00104853
0.00109603
0.00114598
0.00119788
0.00125123
0.00130556
0.00136042
0.00141541
0.00147018
0.00152442
0.00157787
0.00163033
0.00168164
0.00173167
0.00178033
0.00182757
0.00187335
0.00191767
0.00196054
0.00200198
0.00204203
0.00208073
0.00211813
0.00215428
0.00218923
0.00222304
0.00225575
0.00228742
0.00231809
0.0023478
0.0023766
0.00240453
0.00243161
0.00245788
0.00248337
0.0025081
0.0025321
0.00255537
0.00257818
0.00260056
0.0026225
0.00264397
0.00266495
0.00268541
0.00270531
0.00272461
0.00274327
0.00276124
0.00277845
0.00279484
0.00281033
0.00282484
0.00283826
0.0028505
0.00286142
0.00287091
0.00287882
0.002885
0.00288929
0.00289152
0.00289153
0.00288912
0.00288413
0.00287639
0.00286574
0.00285203
0.00283515
0.00281502
0.00279159
0.00276486
0.00273489
0.00270179
0.00266572
0.00262689
0.00258555
0.00254199
0.00249649
0.00244932
0.00240073
0.00235098
0.00230031
0.00224897
0.00219726
0.00214549
0.00209408
0.00204366
0.00199509
0.00194893
0.00190545
0.00186473
0.00182758
0.00179382
0.00176339
0.00173636
0.00171265
0.00169267
0.00167564
0.00166049
0.00164628
0.00163347
0.00162259
0.00161385
0.00160671
0.0016007
0.00159535
0.00159009
0.00158453
0.00157977
0.00157464
0.00156889
0.00156246
0.00155575
0.00154911
0.00154172
0.00153298
0.00152481
0.00151636
0.00150653
0.00149421
0.00148092
0.00146646
0.00144882
0.00142985
0.00141155
0.00139288
0.00137068
0.00134704
0.00131962
0.00129045
0.00126698
0.00123931
0.00120872
0.00117721
0.00114584
0.00111512
0.0010853
0.00105654
0.00102885
0.00100221
0.000976453
0.000951372
0.000926658
0.000901938
0.000876798
0.000850798
0.00082357
0.000794902
6.0268e-05
0.000203821
0.0003496
0.000472933
0.000573033
0.00065236
0.000713607
0.00075927
0.000791672
0.000812891
0.000824716
0.000829377
0.000829062
0.000825855
0.000821633
0.000817954
0.00081597
0.000816407
0.00081962
0.0008257
0.000834607
0.000846284
0.000860737
0.000878081
0.000898533
0.000922374
0.000949896
0.000981343
0.00101687
0.00105651
0.00110016
0.00114758
0.00119839
0.00125216
0.0013084
0.0013666
0.00142627
0.00148691
0.00154809
0.00160939
0.00167046
0.00173098
0.00179067
0.0018493
0.00190669
0.00196269
0.00201719
0.00207009
0.00212134
0.00217091
0.00221878
0.00226496
0.00230947
0.00235233
0.00239359
0.00243328
0.00247146
0.00250818
0.00254349
0.00257745
0.00261011
0.00264152
0.00267173
0.0027008
0.00272875
0.00275565
0.00278152
0.00280639
0.00283031
0.0028533
0.00287538
0.00289664
0.00291732
0.00293736
0.00295674
0.00297543
0.00299341
0.00301065
0.00302712
0.00304281
0.00305765
0.00307162
0.00308467
0.00309674
0.00310777
0.00311768
0.00312639
0.00313382
0.00313987
0.00314442
0.00314736
0.00314856
0.00314787
0.00314516
0.00314027
0.00313305
0.00312334
0.00311101
0.00309592
0.00307795
0.00305702
0.00303308
0.00300611
0.00297616
0.00294333
0.00290776
0.00286968
0.00282935
0.00278705
0.00274312
0.00269785
0.00265152
0.00260437
0.00255658
0.00250828
0.00245959
0.00241065
0.00236164
0.0023129
0.00226509
0.00221879
0.00217441
0.00213234
0.002093
0.00205658
0.00202319
0.00199298
0.00196602
0.0019423
0.00192139
0.00190276
0.00188601
0.00187112
0.00185812
0.00184685
0.00183694
0.001828
0.00181965
0.00181153
0.00180344
0.00179572
0.00178789
0.00177966
0.00177086
0.00176152
0.00175164
0.00174097
0.00172935
0.00171715
0.00170394
0.00168925
0.00167281
0.00165499
0.0016356
0.00161403
0.00159091
0.0015667
0.00154103
0.00151314
0.00148367
0.00145189
0.00141888
0.00138705
0.00135323
0.0013182
0.001283
0.00124837
0.00121471
0.00118226
0.00115112
0.00112128
0.00109261
0.00106493
0.00103796
0.00101133
0.000984683
0.000957619
0.000929785
0.000900965
0.000871114
6.79577e-05
0.000224632
0.000383966
0.000518735
0.000627931
0.000714362
0.000781153
0.000831209
0.000867043
0.000890783
0.000904867
0.000911639
0.00091336
0.000912153
0.000909917
0.000908237
0.000908318
0.000910979
0.00091671
0.000925755
0.000938228
0.000954196
0.000973749
0.000997017
0.00102417
0.00105538
0.00109078
0.00113043
0.0011743
0.00122223
0.00127395
0.0013291
0.00138726
0.00144793
0.00151062
0.00157484
0.00164013
0.00170602
0.00177213
0.00183807
0.00190351
0.00196818
0.00203182
0.00209422
0.00215521
0.00221463
0.00227238
0.00232837
0.00238254
0.00243484
0.00248526
0.00253378
0.00258043
0.00262521
0.00266817
0.00270933
0.00274875
0.00278648
0.00282256
0.00285705
0.00289
0.00292146
0.0029515
0.00298015
0.00300747
0.0030335
0.00305828
0.00308185
0.00310424
0.00312548
0.0031456
0.00316463
0.00318285
0.00320023
0.00321675
0.00323239
0.00324714
0.00326097
0.00327387
0.00328584
0.00329684
0.00330686
0.00331587
0.00332384
0.00333074
0.00333653
0.00334116
0.00334457
0.00334672
0.00334752
0.0033469
0.00334478
0.00334105
0.00333561
0.00332834
0.00331912
0.00330783
0.00329432
0.00327849
0.0032602
0.00323937
0.00321592
0.0031898
0.00316104
0.00312968
0.00309584
0.00305971
0.00302153
0.00298157
0.00294018
0.00289767
0.00285434
0.00281047
0.00276622
0.00272168
0.00267688
0.0026318
0.00258645
0.00254092
0.00249561
0.002451
0.00240754
0.00236561
0.00232563
0.00228789
0.00225268
0.00222021
0.00219062
0.00216392
0.00213991
0.00211832
0.0020989
0.00208152
0.002066
0.0020521
0.00203949
0.00202781
0.00201673
0.00200595
0.00199523
0.00198473
0.00197412
0.00196312
0.00195153
0.00193925
0.00192618
0.00191219
0.00189715
0.00188104
0.00186362
0.00184465
0.001824
0.00180173
0.0017777
0.00175169
0.00172388
0.00169437
0.00166304
0.00162976
0.0015948
0.00155807
0.00152017
0.00148199
0.00144299
0.00140379
0.00136506
0.00132739
0.00129113
0.00125651
0.00122356
0.00119222
0.00116226
0.00113339
0.00110524
0.00107737
0.00104937
0.00102089
0.000991648
0.000961563
0.000930725
7.47725e-05
0.000242735
0.000413982
0.00055917
0.000677036
0.000770648
0.00084347
0.000898515
0.000938426
0.000965911
0.000983488
0.000993552
0.000998382
0.00100011
0.00100064
0.00100159
0.00100426
0.00100959
0.00101821
0.00103051
0.00104675
0.00106707
0.00109159
0.00112042
0.00115363
0.00119128
0.00123334
0.00127971
0.00133021
0.00138455
0.00144238
0.00150329
0.0015668
0.00163245
0.00169977
0.00176828
0.00183755
0.00190717
0.00197678
0.00204602
0.00211461
0.00218227
0.00224877
0.00231391
0.00237751
0.00243944
0.00249957
0.00255782
0.00261411
0.0026684
0.00272065
0.00277086
0.00281901
0.00286512
0.00290922
0.00295133
0.0029915
0.00302977
0.00306618
0.00310079
0.00313365
0.00316481
0.00319432
0.00322223
0.00324859
0.00327345
0.00329684
0.0033188
0.00333936
0.00335856
0.00337641
0.00339294
0.00340842
0.00342285
0.00343622
0.00344852
0.00345974
0.00346987
0.00347891
0.00348686
0.00349372
0.00349949
0.00350415
0.00350771
0.00351017
0.00351151
0.00351173
0.00351082
0.00350877
0.00350554
0.00350112
0.00349546
0.00348852
0.00348024
0.00347055
0.00345936
0.00344659
0.00343212
0.00341584
0.00339764
0.0033774
0.00335504
0.00333046
0.00330362
0.00327453
0.00324324
0.00320987
0.00317461
0.0031377
0.00309945
0.0030602
0.00302025
0.00297991
0.00293938
0.00289876
0.00285806
0.0028172
0.00277604
0.00273449
0.00269266
0.00265095
0.00260967
0.00256918
0.00252984
0.002492
0.002456
0.00242215
0.00239067
0.00236168
0.00233515
0.00231097
0.002289
0.00226907
0.00225099
0.00223449
0.00221925
0.00220496
0.00219128
0.00217793
0.00216463
0.00215142
0.00213806
0.00212426
0.00210981
0.00209455
0.00207833
0.00206103
0.00204251
0.00202266
0.00200129
0.00197826
0.00195347
0.00192687
0.00189835
0.0018678
0.00183525
0.00180072
0.00176418
0.00172569
0.00168542
0.00164353
0.00160046
0.00155675
0.00151297
0.00146963
0.00142733
0.00138661
0.00134787
0.0013113
0.00127693
0.0012446
0.00121397
0.0011846
0.00115596
0.0011275
0.00109874
0.00106931
0.00103901
0.00100789
0.00097617
8.05545e-05
0.000257848
0.000439314
0.000593879
0.000719961
0.000820781
0.00089976
0.000960214
0.00100522
0.00103754
0.00105973
0.0010742
0.00108318
0.00108879
0.00109293
0.00109725
0.00110311
0.00111156
0.00112337
0.00113907
0.00115902
0.00118341
0.00121239
0.00124601
0.00128428
0.00132711
0.00137439
0.00142589
0.00148133
0.00154036
0.00160258
0.00166756
0.00173483
0.00180395
0.00187446
0.00194593
0.00201796
0.00209017
0.00216221
0.00223378
0.00230459
0.00237438
0.00244293
0.00251004
0.00257555
0.0026393
0.00270118
0.00276109
0.00281895
0.0028747
0.0029283
0.00297972
0.00302897
0.00307603
0.00312092
0.00316367
0.00320431
0.00324287
0.0032794
0.00331394
0.00334655
0.00337727
0.00340615
0.00343323
0.00345857
0.0034822
0.00350416
0.00352449
0.00354322
0.00356038
0.00357599
0.00359006
0.00360282
0.00361433
0.00362457
0.00363355
0.00364127
0.00364772
0.00365291
0.00365686
0.00365956
0.00366103
0.0036613
0.00366038
0.00365828
0.00365505
0.00365071
0.00364528
0.0036388
0.00363129
0.00362279
0.00361331
0.00360287
0.00359147
0.00357909
0.0035657
0.00355126
0.00353569
0.00351891
0.00350082
0.00348129
0.0034602
0.00343744
0.00341291
0.00338653
0.00335829
0.00332822
0.00329642
0.00326308
0.00322843
0.00319279
0.00315647
0.00311979
0.003083
0.00304626
0.00300959
0.00297291
0.00293603
0.00289875
0.00286092
0.00282281
0.00278461
0.00274655
0.00270892
0.00267202
0.00263623
0.0026019
0.00256933
0.00253875
0.00251026
0.0024839
0.00245962
0.00243731
0.00241678
0.00239779
0.00238007
0.00236328
0.00234714
0.00233132
0.00231555
0.00229973
0.00228371
0.0022672
0.00224995
0.00223178
0.00221251
0.00219201
0.00217011
0.00214669
0.00212159
0.00209468
0.00206587
0.00203507
0.0020022
0.00196718
0.00192999
0.00189061
0.00184909
0.0018055
0.00176004
0.00171295
0.00166463
0.0016158
0.00156731
0.00151968
0.00147358
0.00142961
0.00138823
0.00134971
0.00131405
0.00128104
0.00125021
0.00122093
0.00119244
0.00116404
0.00113508
0.00110516
0.00107411
0.00104213
0.00100958
8.51702e-05
0.000269772
0.000459727
0.000622599
0.000756306
0.000863901
0.00094922
0.00101577
0.00106667
0.00110473
0.00113248
0.0011523
0.00116637
0.00117676
0.00118532
0.00119371
0.00120333
0.00121531
0.00123054
0.00124964
0.00127306
0.00130107
0.00133379
0.00137127
0.00141344
0.00146018
0.00151127
0.00156643
0.00162533
0.00168758
0.00175277
0.00182047
0.00189023
0.00196163
0.00203424
0.00210766
0.00218151
0.00225544
0.00232913
0.00240227
0.0024746
0.00254587
0.00261586
0.00268438
0.00275126
0.00281634
0.0028795
0.00294064
0.00299966
0.00305651
0.00311112
0.00316347
0.00321354
0.00326132
0.00330681
0.00335003
0.00339101
0.00342976
0.00346634
0.00350078
0.00353313
0.00356343
0.00359171
0.00361804
0.00364245
0.00366497
0.00368565
0.00370451
0.00372159
0.00373691
0.0037505
0.00376238
0.00377261
0.0037814
0.00378875
0.00379464
0.00379909
0.00380209
0.00380365
0.00380379
0.00380252
0.00379987
0.00379587
0.00379056
0.00378397
0.00377617
0.00376721
0.00375716
0.00374609
0.00373408
0.00372122
0.00370758
0.00369324
0.00367828
0.00366275
0.00364668
0.0036301
0.003613
0.00359531
0.00357699
0.0035579
0.00353793
0.00351693
0.00349475
0.00347123
0.00344628
0.00341981
0.00339185
0.00336245
0.00333179
0.00330009
0.00326765
0.00323478
0.00320176
0.00316881
0.00313602
0.00310336
0.00307064
0.00303761
0.00300397
0.00296984
0.00293528
0.0029004
0.00286533
0.00283031
0.00279566
0.00276173
0.00272889
0.00269744
0.00266762
0.00263957
0.00261336
0.00258894
0.00256619
0.00254492
0.00252488
0.00250578
0.00248731
0.00246918
0.00245109
0.00243281
0.00241428
0.00239519
0.00237528
0.00235434
0.00233218
0.00230863
0.00228353
0.00225673
0.0022281
0.0021975
0.00216484
0.00213002
0.00209297
0.00205362
0.00201193
0.0019679
0.00192157
0.00187305
0.00182253
0.00177031
0.00171682
0.00166308
0.0016098
0.00155767
0.00150744
0.00145986
0.00141552
0.00137478
0.00133772
0.00130408
0.00127329
0.00124449
0.00121671
0.00118894
0.00116035
0.00113039
0.00109892
0.00106622
0.00103286
8.85657e-05
0.000278459
0.000475046
0.000644839
0.000785386
0.000899743
0.000991694
0.00106478
0.00112215
0.0011666
0.00120063
0.00122656
0.00124649
0.0012624
0.00127608
0.00128914
0.00130301
0.00131886
0.00133764
0.00136008
0.00138667
0.00141774
0.00145346
0.00149387
0.00153889
0.00158835
0.00164202
0.00169959
0.0017607
0.00182497
0.001892
0.00196135
0.00203261
0.00210536
0.00217922
0.0022538
0.00232875
0.00240374
0.00247844
0.00255258
0.0026259
0.00269815
0.00276911
0.0028386
0.00290644
0.00297248
0.00303658
0.00309863
0.00315854
0.00321623
0.00327164
0.00332473
0.00337546
0.00342383
0.00346982
0.00351345