/*--------------------------------*- C++ -*----------------------------------*\
  =========                 |
  \\      /  F ield         | OpenFOAM: The Open Source CFD Toolbox
   \\    /   O peration     | Website:  https://openfoam.org
    \\  /    A nd           | Version:  9
     \\/     M anipulation  |
\*---------------------------------------------------------------------------*/
FoamFile
{
    format      ascii;
    class       volScalarField;
    location    "0.16";
    object      p;
}
// * * * * * * * * * * * * * * * * * * * * * * * * * * * * * * * * * * * * * //

dimensions      [0 2 -2 0 0 0 0];

internalField   nonuniform List<scalar> 
12225
(
-0.524739
-0.845167
-0.946086
-0.966176
-0.979624
-0.990012
-0.995763
-0.998715
-0.999852
-0.99895
-0.995471
-0.988735
-0.977752
-0.961011
-0.936221
-0.89999
-0.855543
-0.797953
-0.924251
-0.928612
-0.950551
-0.963305
-0.97639
-0.987059
-0.993159
-0.996305
-0.997473
-0.99649
-0.992854
-0.985903
-0.974661
-0.957636
-0.932576
-0.895903
-0.848617
-0.774967
-0.967091
-0.922323
-0.943747
-0.959505
-0.97227
-0.982744
-0.989102
-0.992468
-0.993672
-0.992577
-0.988725
-0.981481
-0.969896
-0.952525
-0.927241
-0.890871
-0.843006
-0.762626
-0.933082
-0.91359
-0.940604
-0.957033
-0.968809
-0.978655
-0.9849
-0.988226
-0.989284
-0.987933
-0.983734
-0.976064
-0.964
-0.946162
-0.920595
-0.884606
-0.836206
-0.754842
-0.92212
-0.916927
-0.940773
-0.955319
-0.965899
-0.974875
-0.980696
-0.983734
-0.984458
-0.982703
-0.978033
-0.96983
-0.957199
-0.93884
-0.912978
-0.877163
-0.828166
-0.75017
-0.924628
-0.922673
-0.941114
-0.953664
-0.963139
-0.971145
-0.976369
-0.978965
-0.979234
-0.976982
-0.971775
-0.963007
-0.949819
-0.931004
-0.904952
-0.869343
-0.820415
-0.748771
-0.927286
-0.92643
-0.940885
-0.95191
-0.96037
-0.967391
-0.971941
-0.974018
-0.973778
-0.971006
-0.965275
-0.956
-0.942372
-0.923291
-0.897292
-0.862215
-0.814725
-0.750797
-0.928373
-0.928691
-0.940394
-0.950118
-0.957612
-0.963681
-0.967539
-0.969073
-0.968329
-0.965078
-0.95891
-0.949272
-0.935421
-0.91637
-0.890814
-0.85687
-0.812184
-0.756451
-0.929028
-0.930339
-0.939885
-0.948373
-0.954943
-0.960117
-0.963297
-0.964306
-0.963108
-0.959471
-0.953011
-0.94322
-0.929434
-0.910794
-0.886184
-0.854123
-0.813338
-0.765504
-0.929754
-0.931669
-0.939431
-0.946738
-0.952423
-0.95676
-0.959292
-0.95981
-0.958226
-0.954313
-0.947723
-0.938007
-0.924591
-0.906757
-0.883617
-0.854137
-0.817908
-0.77731
-0.930719
-0.932895
-0.939194
-0.945385
-0.950224
-0.953792
-0.955732
-0.95583
-0.953966
-0.949931
-0.943421
-0.934056
-0.921363
-0.904781
-0.883657
-0.857368
-0.826018
-0.791867
-0.931081
-0.933515
-0.938704
-0.943891
-0.947928
-0.950784
-0.952172
-0.951891
-0.949817
-0.945767
-0.939497
-0.930707
-0.919044
-0.904113
-0.885495
-0.862882
-0.836545
-0.808371
-0.931656
-0.934349
-0.93858
-0.942857
-0.946159
-0.948378
-0.94929
-0.948716
-0.946537
-0.942609
-0.936751
-0.928753
-0.918387
-0.905427
-0.889681
-0.871102
-0.85004
-0.828072
-0.934079
-0.936774
-0.940155
-0.943631
-0.946338
-0.948112
-0.948781
-0.948193
-0.946242
-0.942821
-0.937812
-0.931092
-0.922547
-0.912098
-0.899735
-0.885582
-0.869958
-0.854108
-0.938533
-0.940988
-0.943689
-0.94654
-0.948854
-0.950443
-0.95117
-0.950914
-0.949588
-0.947122
-0.94345
-0.938522
-0.932315
-0.924854
-0.916241
-0.906664
-0.896288
-0.886168
-0.945298
-0.947337
-0.949538
-0.951997
-0.954194
-0.955937
-0.957117
-0.95764
-0.957444
-0.956488
-0.954752
-0.952237
-0.948979
-0.945063
-0.940634
-0.935854
-0.930651
-0.926014
-0.954551
-0.956064
-0.957943
-0.960276
-0.962671
-0.964938
-0.966985
-0.968739
-0.970155
-0.971216
-0.971928
-0.972325
-0.97247
-0.972465
-0.972456
-0.97254
-0.972387
-0.973081
-0.966246
-0.96717
-0.968889
-0.971372
-0.974296
-0.977452
-0.980746
-0.984113
-0.987512
-0.990934
-0.994393
-0.99793
-1.00161
-1.00553
-1.00981
-1.01448
-1.01899
-1.02457
-0.979695
-0.979855
-0.981519
-0.98441
-0.988167
-0.992523
-0.997354
-1.00258
-1.00814
-1.01403
-1.02024
-1.0268
-1.03376
-1.04118
-1.04918
-1.05769
-1.066
-1.07544
-0.989374
-0.988965
-0.990758
-0.994232
-0.99889
-1.00439
-1.01058
-1.01735
-1.02464
-1.0324
-1.04064
-1.04936
-1.0586
-1.06839
-1.0788
-1.08975
-1.10044
-1.11188
-0.994051
-0.993411
-0.995494
-0.999626
-1.00513
-1.0116
-1.01888
-1.02684
-1.0354
-1.04451
-1.05417
-1.06438
-1.07513
-1.08646
-1.0984
-1.11086
-1.12303
-1.13564
-0.995586
-0.994666
-0.997153
-1.00208
-1.00844
-1.0158
-1.02403
-1.03297
-1.04252
-1.05265
-1.06335
-1.07461
-1.08643
-1.09881
-1.11177
-1.12521
-1.13836
-1.15169
-0.994852
-0.993409
-0.996425
-1.0023
-1.00952
-1.01774
-1.02681
-1.03655
-1.04687
-1.05775
-1.06919
-1.08119
-1.09372
-1.1068
-1.12042
-1.1345
-1.14829
-1.162
-0.992476
-0.99013
-0.993965
-1.00095
-1.00902
-1.01808
-1.02795
-1.03835
-1.04926
-1.06068
-1.07264
-1.08514
-1.09815
-1.11167
-1.12571
-1.14017
-1.1544
-1.16829
-0.988369
-0.984557
-0.99015
-0.998573
-1.00747
-1.01742
-1.02806
-1.03903
-1.05037
-1.06217
-1.07448
-1.08728
-1.10058
-1.11437
-1.12864
-1.14333
-1.15785
-1.17181
-0.983466
-0.975719
-0.98486
-0.995527
-1.00541
-1.01633
-1.02773
-1.03915
-1.05079
-1.06283
-1.07531
-1.08827
-1.1017
-1.11561
-1.12999
-1.14477
-1.15948
-1.17347
-0.988406
-0.966837
-0.979056
-0.992331
-1.00352
-1.01553
-1.02756
-1.03926
-1.05104
-1.06315
-1.07567
-1.08862
-1.10204
-1.11594
-1.13029
-1.14507
-1.15988
-1.17391
-1.02052
-0.970562
-0.977998
-0.99065
-1.00291
-1.01595
-1.0283
-1.03996
-1.05161
-1.06358
-1.07593
-1.08871
-1.10198
-1.11572
-1.12994
-1.14458
-1.15941
-1.17356
-1.00152
-0.980934
-0.984314
-0.991842
-1.00412
-1.01789
-1.03017
-1.04141
-1.05265
-1.06425
-1.07627
-1.08875
-1.10175
-1.11523
-1.12921
-1.14364
-1.15837
-1.17275
-0.611247
-0.875395
-0.969281
-0.989755
-1.00414
-1.01863
-1.0309
-1.0419
-1.0529
-1.06428
-1.0761
-1.08837
-1.1011
-1.11443
-1.12827
-1.14255
-1.15717
-1.17178
0.0700165
0.0839273
0.092358
0.0901684
0.0815188
0.0680478
0.0452554
0.016463
-0.00751097
-0.0328065
-0.0596484
-0.0804027
-0.0977453
-0.113213
-0.127197
-0.140279
-0.156041
-0.173748
-0.189613
-0.205084
-0.22102
-0.238357
-0.259017
-0.283525
-0.312478
-0.346457
-0.379441
-0.411034
-0.463037
-0.526467
-0.568217
-0.612227
-0.673188
-0.743184
-0.821428
-0.908085
-1.00332
-1.10722
-1.21975
-1.34067
-1.46955
-1.60574
-1.74845
-1.89671
-2.04947
-2.20564
-2.36411
-2.5238
-2.68366
-2.84275
-3.00017
-3.15511
-3.30683
-3.45466
-3.59801
-3.7363
-3.86902
-3.99568
-4.11581
-4.22899
-4.33477
-4.43276
-4.52256
-4.60381
-4.67616
-4.73927
-4.7929
-4.83702
-4.87172
-4.89664
-4.91061
-4.91236
-4.90179
-4.8793
-4.84504
-4.79909
-4.74155
-4.67253
-4.59221
-4.50086
-4.39882
-4.2865
-4.16442
-4.03317
-3.89347
-3.74608
-3.59189
-3.43184
-3.26698
-3.09838
-2.92719
-2.75457
-2.58171
-2.4098
-2.24002
-2.07351
-1.91133
-1.75448
-1.60385
-1.46021
-1.32421
-1.19632
-1.07692
-0.966224
-0.864313
-0.771163
-0.68665
-0.610571
-0.542657
-0.48257
-0.429957
-0.384521
-0.345769
-0.312857
-0.285119
-0.260517
-0.235715
-0.229112
-0.239949
-0.249245
-0.261564
-0.265254
-0.265531
-0.26806
-0.288864
-0.327382
-0.340124
-0.350588
-0.382455
-0.412863
-0.437184
-0.462209
-0.471306
-0.480308
-0.50669
-0.524012
-0.537212
-0.544818
-0.547193
-0.549062
-0.544093
-0.531795
-0.521125
-0.489641
-0.454763
-0.434325
-0.401223
-0.360926
-0.317627
-0.272608
-0.224074
-0.175046
-0.111478
-0.0445932
0.00940884
0.0660975
0.119726
0.171545
0.221953
0.269143
0.306003
0.339153
0.377383
0.405291
0.423888
0.437267
0.445649
0.449256
0.448449
0.443658
0.435336
0.42393
0.409887
0.393684
0.375877
0.357193
0.338813
0.322612
0.31406
0.317236
0.0626835
0.0710727
0.0745262
0.0674674
0.0520871
0.0304722
0.00380132
-0.0201031
-0.0443698
-0.0678796
-0.0840441
-0.0984375
-0.111778
-0.122446
-0.130517
-0.136629
-0.142166
-0.152296
-0.165766
-0.179619
-0.195591
-0.212693
-0.23093
-0.251474
-0.274767
-0.30018
-0.327059
-0.362791
-0.400323
-0.432776
-0.47735
-0.537857
-0.60321
-0.674643
-0.753967
-0.842069
-0.939463
-1.04635
-1.16263
-1.28792
-1.42159
-1.56277
-1.71042
-1.86342
-2.02057
-2.18068
-2.34262
-2.5053
-2.66773
-2.82901
-2.98833
-3.14496
-3.29824
-3.44757
-3.59241
-3.73226
-3.86663
-3.99509
-4.11719
-4.23251
-4.34063
-4.44115
-4.53367
-4.61779
-4.69309
-4.75916
-4.81556
-4.86185
-4.89748
-4.92204
-4.93551
-4.93852
-4.93082
-4.91187
-4.88147
-4.83953
-4.78607
-4.72118
-4.64501
-4.5578
-4.45985
-4.35155
-4.23339
-4.10593
-3.96981
-3.8258
-3.67472
-3.51746
-3.35502
-3.18842
-3.01877
-2.84717
-2.67477
-2.50272
-2.33217
-2.16422
-1.99995
-1.84035
-1.68632
-1.53867
-1.3981
-1.26516
-1.14031
-1.02385
-0.915984
-0.8168
-0.726287
-0.644354
-0.570842
-0.505535
-0.4482
-0.398677
-0.356893
-0.322499
-0.294635
-0.27446
-0.266392
-0.253093
-0.237938
-0.234929
-0.235321
-0.247764
-0.264563
-0.285253
-0.29933
-0.303473
-0.331847
-0.364444
-0.382484
-0.401727
-0.425276
-0.446375
-0.475208
-0.500421
-0.510311
-0.524097
-0.534794
-0.542666
-0.548931
-0.546683
-0.541857
-0.536258
-0.519083
-0.50604
-0.485421
-0.44778
-0.414719
-0.377549
-0.334067
-0.285305
-0.23466
-0.18137
-0.131463
-0.0783118
-0.0169338
0.0386316
0.0950346
0.147296
0.19685
0.243197
0.284085
0.320688
0.351035
0.379628
0.398831
0.412883
0.422049
0.426485
0.426528
0.422599
0.415149
0.404622
0.391472
0.376184
0.359327
0.341644
0.324296
0.308916
0.299253
0.298418
0.0504657
0.0553866
0.0563093
0.0487285
0.0343716
0.0157005
-0.00562036
-0.0275788
-0.0483514
-0.0677443
-0.0843663
-0.0985441
-0.110454
-0.120137
-0.127991
-0.134891
-0.141957
-0.149882
-0.158277
-0.167593
-0.178421
-0.191159
-0.206219
-0.22382
-0.244029
-0.266646
-0.292099
-0.323234
-0.359997
-0.398012
-0.443667
-0.50228
-0.570652
-0.64821
-0.735112
-0.831434
-0.937054
-1.05164
-1.17468
-1.30546
-1.44315
-1.58686
-1.73561
-1.88841
-2.04431
-2.20235
-2.36165
-2.52137
-2.68072
-2.83898
-2.99547
-3.14956
-3.30066
-3.44822
-3.59173
-3.73069
-3.86461
-3.99303
-4.11551
-4.2316
-4.34088
-4.44291
-4.53729
-4.62361
-4.70146
-4.77045
-4.8302
-4.88029
-4.92018
-4.94933
-4.96774
-4.97538
-4.97215
-4.95778
-4.93209
-4.895
-4.84647
-4.78657
-4.71541
-4.63319
-4.54019
-4.43676
-4.32335
-4.20046
-4.06873
-3.92883
-3.78154
-3.62773
-3.46829
-3.30423
-3.13655
-2.96634
-2.79467
-2.62265
-2.45137
-2.28192
-2.11534
-1.95262
-1.79468
-1.64236
-1.49638
-1.3574
-1.22593
-1.10241
-0.987153
-0.880377
-0.782211
-0.6927
-0.611815
-0.539467
-0.475525
-0.419839
-0.372259
-0.332472
-0.299816
-0.274531
-0.258361
-0.24421
-0.232377
-0.228184
-0.228642
-0.237915
-0.252323
-0.269931
-0.286848
-0.299958
-0.324195
-0.352182
-0.374679
-0.396746
-0.419972
-0.443147
-0.469942
-0.494363
-0.509647
-0.524805
-0.537045
-0.546363
-0.552798
-0.553101
-0.549145
-0.542366
-0.528441
-0.515226
-0.494775
-0.462316
-0.429745
-0.393374
-0.351605
-0.304819
-0.25522
-0.20393
-0.154476
-0.100352
-0.0416802
0.0135492
0.06916
0.121152
0.170545
0.216708
0.25779
0.293369
0.325674
0.354315
0.374592
0.389703
0.399943
0.405468
0.406599
0.403751
0.397366
0.387892
0.375787
0.361542
0.345733
0.32909
0.312693
0.297936
0.287447
0.282364
0.046507
0.04554
0.042586
0.0339758
0.0205193
0.00401614
-0.0141485
-0.0328026
-0.0507443
-0.0673487
-0.0820879
-0.0947026
-0.105213
-0.113811
-0.120824
-0.126799
-0.132448
-0.138343
-0.144793
-0.152245
-0.16123
-0.17242
-0.186273
-0.203138
-0.22339
-0.24748
-0.276188
-0.310687
-0.351694
-0.39886
-0.453927
-0.518761
-0.593232
-0.677058
-0.769996
-0.871705
-0.981729
-1.09952
-1.22446
-1.35586
-1.49301
-1.63515
-1.78153
-1.93137
-2.08392
-2.23842
-2.39415
-2.55042
-2.70653
-2.86187
-3.0158
-3.16774
-3.31713
-3.46342
-3.6061
-3.74467
-3.87862
-4.00747
-4.13075
-4.248
-4.35875
-4.46255
-4.55895
-4.64751
-4.72778
-4.79934
-4.86179
-4.91474
-4.95776
-4.9905
-5.0128
-5.02446
-5.02526
-5.01497
-4.99341
-4.96048
-4.91613
-4.86038
-4.79333
-4.71513
-4.62603
-4.52635
-4.41649
-4.29695
-4.16828
-4.03114
-3.88626
-3.73446
-3.57661
-3.41365
-3.24658
-3.07641
-2.90421
-2.73106
-2.55804
-2.38622
-2.21665
-2.05033
-1.88822
-1.73117
-1.57999
-1.43538
-1.29795
-1.1682
-1.04655
-0.933302
-0.828686
-0.732835
-0.645801
-0.567565
-0.498043
-0.437084
-0.384453
-0.339834
-0.302839
-0.273395
-0.251645
-0.235974
-0.225708
-0.221321
-0.222024
-0.228753
-0.240413
-0.255994
-0.274165
-0.293064
-0.315987
-0.341428
-0.366447
-0.391385
-0.416039
-0.440749
-0.466031
-0.489777
-0.509158
-0.526166
-0.540236
-0.550909
-0.558179
-0.560726
-0.558618
-0.552112
-0.540507
-0.526133
-0.5054
-0.477587
-0.446261
-0.410547
-0.370074
-0.325418
-0.277766
-0.228119
-0.177413
-0.122222
-0.0657215
-0.0097122
0.0450562
0.0966968
0.14601
0.192643
0.233407
0.268148
0.30347
0.3326
0.354013
0.370076
0.381198
0.387598
0.389605
0.38763
0.382112
0.3735
0.36225
0.348848
0.333856
0.317966
0.302124
0.287505
0.275684
0.267677
0.0652789
0.0586279
0.0516803
0.0412526
0.0275241
0.0116963
-0.00516409
-0.0221699
-0.0385524
-0.053727
-0.0673058
-0.0791084
-0.0891212
-0.0974784
-0.10449
-0.110627
-0.116449
-0.122521
-0.129361
-0.13749
-0.147478
-0.159927
-0.175412
-0.194519
-0.217869
-0.246144
-0.280112
-0.320573
-0.368093
-0.423071
-0.486237
-0.55811
-0.638663
-0.727697
-0.824926
-0.92996
-1.04233
-1.16149
-1.28688
-1.4179
-1.55392
-1.69432
-1.83846
-1.9857
-2.1354
-2.28693
-2.43968
-2.59303
-2.7464
-2.8992
-3.05088
-3.20089
-3.34869
-3.49376
-3.63558
-3.77365
-3.90747
-4.03655
-4.16039
-4.27852
-4.39046
-4.49573
-4.59386
-4.68439
-4.76686
-4.84082
-4.90586
-4.96155
-5.0075
-5.04335
-5.06885
-5.08375
-5.08779
-5.08075
-5.06242
-5.03269
-4.99148
-4.93878
-4.87467
-4.79927
-4.7128
-4.61555
-4.50788
-4.39024
-4.26319
-4.12732
-3.98335
-3.83206
-3.67429
-3.51095
-3.34303
-3.17154
-2.99752
-2.82206
-2.64624
-2.47115
-2.29787
-2.12743
-1.96082
-1.79898
-1.64275
-1.49291
-1.35013
-1.21499
-1.08799
-0.969491
-0.859787
-0.75906
-0.667404
-0.584825
-0.511246
-0.446511
-0.390373
-0.342525
-0.302688
-0.270754
-0.246586
-0.229285
-0.218247
-0.213231
-0.213603
-0.219441
-0.230377
-0.245764
-0.264264
-0.284701
-0.308265
-0.334085
-0.360213
-0.386731
-0.413099
-0.438984
-0.464765
-0.489201
-0.510401
-0.528956
-0.544494
-0.556654
-0.565038
-0.569048
-0.568598
-0.56327
-0.552984
-0.538814
-0.519006
-0.493231
-0.463037
-0.428159
-0.388693
-0.345276
-0.298811
-0.249714
-0.198432
-0.143764
-0.0879543
-0.0318038
0.0226304
0.0744276
0.123973
0.170959
0.212193
0.247942
0.284005
0.31354
0.335919
0.352796
0.364646
0.371754
0.374471
0.373209
0.36841
0.360519
0.349987
0.337288
0.322953
0.307619
0.292093
0.277362
0.264229
0.254297
0.110353
0.0971851
0.0853016
0.0716161
0.055954
0.0390926
0.0218306
0.00482861
-0.0113639
-0.026332
-0.0398399
-0.051801
-0.0622441
-0.0713471
-0.0794415
-0.0869854
-0.0945179
-0.102604
-0.111809
-0.122713
-0.135914
-0.152036
-0.171721
-0.195627
-0.224426
-0.258789
-0.299368
-0.346743
-0.401346
-0.463498
-0.533501
-0.611483
-0.69732
-0.790764
-0.891493
-0.999122
-1.11321
-1.23328
-1.35883
-1.48933
-1.62426
-1.76308
-1.90525
-2.05024
-2.1975
-2.34651
-2.49673
-2.64762
-2.79866
-2.94934
-3.09912
-3.2475
-3.39396
-3.53799
-3.6791
-3.81677
-3.95051
-4.07981
-4.20417
-4.3231
-4.4361
-4.54268
-4.64235
-4.73462
-4.81904
-4.89512
-4.96243
-5.02054
-5.06902
-5.10749
-5.13564
-5.1532
-5.15988
-5.15543
-5.13965
-5.11239
-5.07355
-5.02311
-4.96109
-4.88761
-4.80285
-4.70707
-4.6006
-4.48388
-4.3574
-4.22177
-4.07766
-3.92582
-3.76709
-3.60236
-3.4326
-3.25882
-3.08207
-2.90345
-2.72405
-2.54501
-2.36743
-2.19238
-2.02092
-1.85404
-1.69264
-1.53758
-1.3896
-1.24935
-1.11738
-0.994138
-0.879947
-0.775035
-0.679522
-0.593426
-0.516671
-0.449095
-0.390454
-0.340458
-0.298827
-0.26535
-0.239756
-0.221395
-0.209694
-0.204255
-0.204575
-0.210441
-0.221402
-0.236853
-0.255827
-0.277412
-0.301821
-0.328372
-0.355802
-0.38364
-0.411419
-0.438802
-0.465593
-0.490904
-0.513546
-0.533486
-0.550375
-0.563824
-0.573435
-0.578694
-0.579417
-0.575331
-0.56633
-0.552808
-0.533836
-0.509294
-0.479994
-0.445935
-0.407304
-0.364649
-0.318693
-0.269867
-0.218477
-0.164193
-0.108712
-0.0528388
0.00165244
0.0539201
0.103932
0.15123
0.193355
0.230604
0.266533
0.296321
0.319486
0.337086
0.349586
0.357317
0.360652
0.360015
0.35585
0.348602
0.338711
0.326634
0.312864
0.297981
0.282659
0.267748
0.253525
0.242255
0.177126
0.159007
0.140746
0.122377
0.103476
0.0842447
0.0652171
0.0468913
0.0296377
0.0136665
-0.000924794
-0.0141245
-0.026048
-0.0369568
-0.0472382
-0.0573796
-0.0679325
-0.0794784
-0.0926097
-0.107928
-0.126049
-0.1476
-0.173213
-0.203518
-0.239122
-0.280589
-0.328417
-0.383004
-0.444626
-0.513451
-0.58956
-0.672912
-0.763327
-0.860537
-0.964218
-1.07401
-1.18951
-1.31031
-1.43598
-1.56607
-1.70014
-1.83773
-1.97839
-2.12166
-2.26707
-2.41416
-2.56246
-2.7115
-2.8608
-3.00987
-3.15825
-3.30543
-3.45092
-3.59425
-3.73489
-3.87237
-4.00617
-4.13578
-4.26071
-4.38044
-4.49446
-4.60226
-4.70335
-4.79722
-4.88338
-4.96135
-5.03066
-5.09087
-5.14154
-5.18224
-5.21264
-5.23241
-5.24128
-5.23897
-5.22524
-5.19993
-5.16291
-5.11414
-5.05362
-4.98143
-4.89774
-4.80276
-4.69681
-4.5803
-4.4537
-4.31759
-4.17262
-4.01951
-3.8591
-3.69227
-3.51997
-3.34323
-3.16309
-2.98068
-2.79713
-2.61359
-2.43121
-2.25112
-2.07442
-1.90218
-1.73537
-1.5749
-1.4216
-1.27619
-1.13929
-1.01139
-0.89287
-0.783997
-0.684915
-0.595655
-0.516148
-0.446225
-0.385644
-0.334107
-0.291302
-0.256918
-0.230584
-0.211751
-0.199859
-0.194443
-0.195054
-0.201345
-0.212801
-0.228795
-0.248539
-0.271269
-0.29672
-0.324251
-0.352922
-0.382106
-0.411299
-0.440103
-0.468082
-0.494499
-0.518497
-0.539758
-0.557918
-0.572572
-0.583332
-0.589728
-0.591511
-0.58848
-0.580524
-0.567729
-0.54956
-0.525962
-0.49739
-0.463994
-0.426003
-0.383874
-0.33821
-0.289492
-0.238043
-0.183984
-0.128633
-0.0728671
-0.0181429
0.034693
0.0852954
0.133036
0.176129
0.214681
0.250523
0.280582
0.304421
0.322678
0.335775
0.344071
0.34796
0.347881
0.344286
0.337619
0.328312
0.316797
0.303532
0.289035
0.273872
0.25879
0.243713
0.23149
0.258209
0.234899
0.210446
0.187107
0.164359
0.141982
0.120314
0.0997241
0.0804039
0.0624341
0.0458284
0.0304947
0.0162056
0.00261019
-0.0107486
-0.0244064
-0.0389462
-0.0549705
-0.0730848
-0.0938913
-0.117987
-0.145959
-0.178378
-0.215785
-0.258673
-0.307473
-0.362533
-0.424102
-0.492329
-0.567264
-0.648872
-0.737031
-0.831536
-0.932123
-1.03849
-1.15031
-1.26723
-1.3889
-1.51495
-1.645
-1.77867
-1.91557
-2.05531
-2.19749
-2.3417
-2.48754
-2.63458
-2.7824
-2.93054
-3.07858
-3.22605
-3.37249
-3.51744
-3.6604
-3.80089
-3.93841
-4.07247
-4.20255
-4.32814
-4.44873
-4.56379
-4.67281
-4.77526
-4.87064
-4.95843
-5.03814
-5.10928
-5.17138
-5.22399
-5.26666
-5.29901
-5.32071
-5.33144
-5.33093
-5.3189
-5.29517
-5.2596
-5.2121
-5.15266
-5.08133
-4.99825
-4.90362
-4.79773
-4.68095
-4.55374
-4.41664
-4.2703
-4.11543
-3.95282
-3.78337
-3.60802
-3.42779
-3.24377
-3.05707
-2.86886
-2.68034
-2.4927
-2.30713
-2.12479
-1.9468
-1.77423
-1.60805
-1.44918
-1.2984
-1.15639
-1.02372
-0.90081
-0.787974
-0.68538
-0.593078
-0.511004
-0.438991
-0.376786
-0.324073
-0.280494
-0.245658
-0.219119
-0.200345
-0.188765
-0.183854
-0.185147
-0.192215
-0.20452
-0.221429
-0.242222
-0.266192
-0.292854
-0.321569
-0.351541
-0.382113
-0.412734
-0.442925
-0.472167
-0.499797
-0.525104
-0.547646
-0.567023
-0.582825
-0.594655
-0.60209
-0.604861
-0.602767
-0.595688
-0.58358
-0.566128
-0.543291
-0.515339
-0.482474
-0.444956
-0.403192
-0.357714
-0.309012
-0.257464
-0.203462
-0.148075
-0.0922033
-0.0371115
0.0163431
0.0676039
0.115937
0.159975
0.199606
0.235603
0.266031
0.290498
0.309372
0.323029
0.331845
0.336237
0.336662
0.333582
0.327444
0.318672
0.307674
0.294872
0.280728
0.265714
0.250503
0.234789
0.221895
0.343473
0.315886
0.286141
0.258256
0.231696
0.205953
0.181227
0.157768
0.135715
0.115097
0.0958342
0.0777198
0.0604275
0.043522
0.0264798
0.00871648
-0.0103832
-0.0314392
-0.0550585
-0.081825
-0.112294
-0.146988
-0.18639
-0.230932
-0.280987
-0.336857
-0.398763
-0.466841
-0.541143
-0.621641
-0.708239
-0.80078
-0.899053
-1.00281
-1.11177
-1.22565
-1.34415
-1.46694
-1.59372
-1.72415
-1.85792
-1.99467
-2.13408
-2.27578
-2.41942
-2.56463
-2.71102
-2.8582
-3.00577
-3.1533
-3.30037
-3.44653
-3.59133
-3.7343
-3.87495
-4.01281
-4.14736
-4.27809
-4.4045
-4.52606
-4.64224
-4.7525
-4.85633
-4.9532
-5.04257
-5.12394
-5.19681
-5.26067
-5.31507
-5.35955
-5.39367
-5.41709
-5.42948
-5.43053
-5.41998
-5.39759
-5.3632
-5.3167
-5.25807
-5.18732
-5.10457
-5.00999
-4.90384
-4.78648
-4.65834
-4.51993
-4.37189
-4.2149
-4.04975
-3.87731
-3.69853
-3.51444
-3.32612
-3.13472
-2.94145
-2.74752
-2.55419
-2.3627
-2.17429
-1.99015
-1.81141
-1.63915
-1.47435
-1.31787
-1.17049
-1.03282
-0.905347
-0.788423
-0.682252
-0.586903
-0.502321
-0.428337
-0.364685
-0.311022
-0.266942
-0.231989
-0.20565
-0.187368
-0.176534
-0.172556
-0.174914
-0.183112
-0.196588
-0.214711
-0.236795
-0.262147
-0.290175
-0.320237
-0.351604
-0.383608
-0.415666
-0.447244
-0.47778
-0.506652
-0.533226
-0.557002
-0.577545
-0.594436
-0.607278
-0.61568
-0.619361
-0.618118
-0.611808
-0.600334
-0.583499
-0.56128
-0.533851
-0.501419
-0.464255
-0.422741
-0.377364
-0.328614
-0.276927
-0.222835
-0.167274
-0.111143
-0.0555762
-0.0014559
0.0505194
0.0995524
0.144511
0.185099
0.221477
0.252389
0.277481
0.296961
0.311164
0.320476
0.325337
0.326225
0.323618
0.317968
0.309691
0.299179
0.286814
0.273009
0.25816
0.242884
0.226731
0.213373
0.423331
0.392829
0.359279
0.327886
0.298159
0.269359
0.241584
0.215146
0.19019
0.166688
0.144471
0.123246
0.102612
0.0820709
0.0610494
0.0389291
0.0150735
-0.0111445
-0.0403226
-0.0730164
-0.109732
-0.15092
-0.196976
-0.248231
-0.304949
-0.367325
-0.43548
-0.509463
-0.589258
-0.674785
-0.765917
-0.86248
-0.964269
-1.07105
-1.18258
-1.29859
-1.41882
-1.54299
-1.67083
-1.80205
-1.93636
-2.07346
-2.21306
-2.35483
-2.49846
-2.64359
-2.78989
-2.93698
-3.08448
-3.23201
-3.37915
-3.52546
-3.67052
-3.81386
-3.95501
-4.09348
-4.22877
-4.36038
-4.48778
-4.61045
-4.72786
-4.83946
-4.94471
-5.04309
-5.13404
-5.21705
-5.29159
-5.35716
-5.41328
-5.45945
-5.49524
-5.52026
-5.53418
-5.53667
-5.52743
-5.50623
-5.47288
-5.42723
-5.36924
-5.29891
-5.21631
-5.1216
-5.01503
-4.8969
-4.76764
-4.62774
-4.47779
-4.31848
-4.15056
-3.97491
-3.79245
-3.60422
-3.41131
-3.2149
-3.01621
-2.81652
-2.61711
-2.41932
-2.22442
-2.0337
-1.84838
-1.66963
-1.49851
-1.33599
-1.18289
-1.03994
-0.907664
-0.786469
-0.676593
-0.578128
-0.491028
-0.415119
-0.350118
-0.295649
-0.251261
-0.216435
-0.190597
-0.173139
-0.163397
-0.1607
-0.164456
-0.174106
-0.189053
-0.208657
-0.232245
-0.259129
-0.288666
-0.320202
-0.353041
-0.386515
-0.420016
-0.452977
-0.484814
-0.514928
-0.542724
-0.567678
-0.58933
-0.607255
-0.621057
-0.63036
-0.634881
-0.634409
-0.628785
-0.61789
-0.601593
-0.579885
-0.552892
-0.520814
-0.483919
-0.442571
-0.397232
-0.348389
-0.296522
-0.242236
-0.186398
-0.129895
-0.0737779
-0.0189526
0.0337854
0.0835938
0.129469
0.170966
0.2079
0.239405
0.265151
0.285252
0.300009
0.309815
0.315133
0.316463
0.3143
0.309108
0.3013
0.291251
0.279311
0.265849
0.251198
0.235931
0.219514
0.205848
0.489026
0.457253
0.421863
0.388603
0.356846
0.325805
0.295622
0.266686
0.239142
0.212928
0.187825
0.163494
0.139492
0.11529
0.0902946
0.0638737
0.0353877
0.00421581
-0.030222
-0.0684493
-0.110924
-0.158037
-0.210104
-0.267375
-0.330028
-0.398173
-0.471857
-0.551067
-0.635738
-0.725757
-0.820978
-0.921221
-1.02629
-1.13596
-1.25001
-1.3682
-1.4903
-1.61606
-1.74523
-1.87757
-2.01281
-2.15068
-2.29091
-2.43322
-2.5773
-2.72285
-2.86953
-3.01701
-3.16492
-3.31289
-3.46051
-3.60739
-3.75307
-3.89713
-4.03908
-4.17845
-4.31473
-4.44743
-4.57601
-4.69995
-4.81871
-4.93174
-5.0385
-5.13844
-5.23101
-5.31567
-5.39188
-5.45914
-5.51692
-5.56476
-5.60216
-5.62873
-5.64409
-5.64794
-5.63994
-5.61985
-5.58744
-5.54256
-5.48513
-5.41513
-5.33261
-5.2377
-5.13061
-5.01165
-4.88119
-4.73972
-4.58779
-4.42607
-4.2553
-4.07631
-3.89004
-3.69752
-3.49984
-3.2982
-3.09384
-2.8881
-2.6823
-2.47784
-2.27609
-2.07841
-1.88611
-1.70047
-1.52264
-1.35369
-1.19455
-1.046
-0.908665
-0.782991
-0.66926
-0.567586
-0.47793
-0.40011
-0.33382
-0.278649
-0.234094
-0.199577
-0.17446
-0.158072
-0.149684
-0.14854
-0.153963
-0.165331
-0.182005
-0.203322
-0.228601
-0.257156
-0.288317
-0.321422
-0.355789
-0.390755
-0.425697
-0.460026
-0.49315
-0.524482
-0.553449
-0.579521
-0.602222
-0.621121
-0.635823
-0.645965
-0.651258
-0.651484
-0.646476
-0.636108
-0.620286
-0.599008
-0.572381
-0.540591
-0.5039
-0.462661
-0.417314
-0.368345
-0.316268
-0.261722
-0.205534
-0.148583
-0.0918656
-0.0363084
0.017227
0.067863
0.114659
0.157058
0.194683
0.226874
0.253318
0.274073
0.289412
0.299732
0.305516
0.307284
0.305555
0.300804
0.293448
0.28385
0.272334
0.259229
0.244819
0.229638
0.213115
0.199259
0.532932
0.502013
0.467334
0.434263
0.402202
0.370342
0.338928
0.308402
0.278956
0.250535
0.222925
0.195785
0.168671
0.141056
0.112353
0.0819425
0.0492003
0.0135248
-0.0256393
-0.0687831
-0.116324
-0.168602
-0.225877
-0.288334
-0.35609
-0.429194
-0.50764
-0.591371
-0.680287
-0.774255
-0.873114
-0.976684
-1.08477
-1.19716
-1.31366
-1.43404
-1.55808
-1.68557
-1.81628
-1.94998
-2.08644
-2.2254
-2.36663
-2.50984
-2.65477
-2.80112
-2.94859
-3.09684
-3.24554
-3.39432
-3.54279
-3.69056
-3.8372
-3.98227
-4.1253
-4.26582
-4.40332
-4.5373
-4.66724
-4.7926
-4.91284
-5.02741
-5.13576
-5.23732
-5.33155
-5.4179
-5.49581
-5.56475
-5.6242
-5.67367
-5.71267
-5.74075
-5.75754
-5.7627
-5.75591
-5.73688
-5.70538
-5.66124
-5.60434
-5.53465
-5.45219
-5.35707
-5.24948
-5.12969
-4.99806
-4.85504
-4.70116
-4.53705
-4.36343
-4.18112
-3.99104
-3.79418
-3.59167
-3.38469
-3.17454
-2.96255
-2.75015
-2.53876
-2.32985
-2.12487
-1.92524
-1.73233
-1.54742
-1.37169
-1.20617
-1.05173
-0.909069
-0.778709
-0.660969
-0.55599
-0.463737
-0.384013
-0.316485
-0.260695
-0.216089
-0.182023
-0.15779
-0.14265
-0.135807
-0.136413
-0.143704
-0.156993
-0.175591
-0.198801
-0.225921
-0.256258
-0.289131
-0.323867
-0.359793
-0.396252
-0.432616
-0.468282
-0.50266
-0.535169
-0.565248
-0.592369
-0.616051
-0.635858
-0.651397
-0.662311
-0.668308
-0.669165
-0.66471
-0.654818
-0.639415
-0.618506
-0.592187
-0.560633
-0.524099
-0.482927
-0.437542
-0.388426
-0.336117
-0.281271
-0.22469
-0.167244
-0.109899
-0.0535968
0.000754379
0.052247
0.0999657
0.143275
0.18169
0.21464
0.241829
0.26328
0.27924
0.290111
0.296387
0.298611
0.297321
0.293009
0.286098
0.276947
0.265859
0.253133
0.239012
0.223997
0.207507
0.193557
0.551074
0.523283
0.491888
0.461276
0.430862
0.39982
0.368503
0.337463
0.306975
0.277053
0.24753
0.218102
0.188357
0.157797
0.125868
0.0919787
0.0555369
0.0159715
-0.027242
-0.0745631
-0.126375
-0.182979
-0.244596
-0.311368
-0.383367
-0.460605
-0.543037
-0.630577
-0.723103
-0.820465
-0.922496
-1.02901
-1.13982
-1.25472
-1.37352
-1.49602
-1.622
-1.75128
-1.88362
-2.01884
-2.15669
-2.29696
-2.43942
-2.5838
-2.72985
-2.87729
-3.02583
-3.17515
-3.32492
-3.4748
-3.6244
-3.77333
-3.92117
-4.06749
-4.21182
-4.35369
-4.49259
-4.62803
-4.75946
-4.88637
-5.0082
-5.1244
-5.23441
-5.33767
-5.43361
-5.52167
-5.6013
-5.67194
-5.73307
-5.78418
-5.82476
-5.85436
-5.87257
-5.87904
-5.87344
-5.85547
-5.82488
-5.78148
-5.72514
-5.65578
-5.57343
-5.47816
-5.37013
-5.2496
-5.11689
-4.97243
-4.81672
-4.65036
-4.47403
-4.28853
-4.09474
-3.89365
-3.68637
-3.47409
-3.25812
-3.03985
-2.82072
-2.60225
-2.38598
-2.17345
-1.9662
-1.76572
-1.57341
-1.39057
-1.21834
-1.05772
-0.909499
-0.774254
-0.652361
-0.543988
-0.449102
-0.367486
-0.29877
-0.242443
-0.197889
-0.164394
-0.14117
-0.127405
-0.122234
-0.124719
-0.134007
-0.14935
-0.170005
-0.19523
-0.224289
-0.256481
-0.291115
-0.327511
-0.365
-0.402931
-0.440677
-0.477633
-0.513209
-0.546834
-0.577956
-0.606051
-0.630637
-0.651277
-0.667581
-0.679197
-0.685831
-0.687253
-0.683291
-0.673825
-0.658792
-0.638201
-0.612142
-0.580782
-0.54437
-0.503235
-0.457791
-0.408519
-0.355967
-0.3008
-0.243803
-0.18584
-0.127859
-0.070813
-0.0156458
0.0367098
0.0853478
0.129579
0.16884
0.2026
0.230574
0.252759
0.269386
0.280851
0.287661
0.290373
0.289544
0.285682
0.279221
0.27052
0.259871
0.247549
0.233767
0.218992
0.202658
0.188698
0.544495
0.521195
0.494849
0.468526
0.441342
0.412509
0.382495
0.351979
0.321354
0.290733
0.260026
0.228991
0.197268
0.164405
0.129892
0.0931827
0.0537262
0.0109905
-0.0355133
-0.0862126
-0.141461
-0.201531
-0.266615
-0.336828
-0.412217
-0.492765
-0.578409
-0.669042
-0.764527
-0.864705
-0.969401
-1.07843
-1.1916
-1.30873
-1.42961
-1.55405
-1.68187
-1.81286
-1.94683
-2.08357
-2.22289
-2.36455
-2.50835
-2.65403
-2.80134
-2.95003
-3.09981
-3.25037
-3.40139
-3.55254
-3.70344
-3.8537
-4.00291
-4.15064
-4.29641
-4.43977
-4.5802
-4.71719
-4.85023
-4.97877
-5.10227
-5.22017
-5.3319
-5.4369
-5.5346
-5.62442
-5.7058
-5.77818
-5.84101
-5.89378
-5.93597
-5.96712
-5.98677
-5.99458
-5.9902
-5.97333
-5.9437
-5.9011
-5.84538
-5.77645
-5.6943
-5.599
-5.49068
-5.36957
-5.23597
-5.09028
-4.93297
-4.76459
-4.58581
-4.39738
-4.20013
-3.99505
-3.78321
-3.56582
-3.34418
-3.11971
-2.8939
-2.66833
-2.44461
-2.2244
-2.00934
-1.80104
-1.60107
-1.41083
-1.23163
-1.06457
-0.910548
-0.77023
-0.644048
-0.532199
-0.434651
-0.351164
-0.281325
-0.224551
-0.180143
-0.147304
-0.125171
-0.112863
-0.109444
-0.113885
-0.125243
-0.142707
-0.165477
-0.192761
-0.223801
-0.257875
-0.294281
-0.33233
-0.371351
-0.410706
-0.449774
-0.487951
-0.524652
-0.559316
-0.591398
-0.620381
-0.645785
-0.667177
-0.684167
-0.696411
-0.70361
-0.705533
-0.702007
-0.692917
-0.678208
-0.657891
-0.632052
-0.600854
-0.564534
-0.523416
-0.477902
-0.428469
-0.375672
-0.320178
-0.262759
-0.204275
-0.145663
-0.0878898
-0.031923
0.0212866
0.0708356
0.115985
0.156114
0.190711
0.219493
0.242443
0.259775
0.271881
0.279271
0.282514
0.28218
0.278791
0.272794
0.264552
0.254355
0.242463
0.229067
0.214605
0.198536
0.184638
0.51578
0.497401
0.477401
0.456749
0.434093
0.408667
0.381056
0.352065
0.322219
0.291751
0.260664
0.228792
0.195834
0.161397
0.125023
0.0862171
0.0444792
-0.000677274
-0.0497005
-0.102984
-0.160851
-0.223553
-0.291262
-0.364077
-0.442028
-0.525087
-0.613178
-0.706183
-0.803959
-0.906341
-1.01315
-1.1242
-1.23931
-1.35827
-1.48092
-1.60705
-1.73647
-1.86901
-2.00447
-2.14266
-2.28337
-2.42639
-2.57152
-2.71851
-2.86712
-3.0171
-3.16817
-3.32003
-3.47238
-3.62487
-3.77714
-3.92881
-4.07947
-4.22868
-4.37598
-4.52089
-4.66291