/*--------------------------------*- C++ -*----------------------------------*\
  =========                 |
  \\      /  F ield         | OpenFOAM: The Open Source CFD Toolbox
   \\    /   O peration     | Website:  https://openfoam.org
    \\  /    A nd           | Version:  9
     \\/     M anipulation  |
\*---------------------------------------------------------------------------*/
FoamFile
{
    format      ascii;
    class       surfaceScalarField;
    location    "0.16";
    object      phi;
}
// * * * * * * * * * * * * * * * * * * * * * * * * * * * * * * * * * * * * * //

dimensions      [0 3 -1 0 0 0 0];

internalField   nonuniform List<scalar> 
24170
(
3.04439e-07
1.44012e-08
2.65886e-07
3.85531e-08
2.36062e-07
2.98243e-08
2.1214e-07
2.39216e-08
1.93922e-07
1.82183e-08
1.80303e-07
1.36189e-08
1.69253e-07
1.10503e-08
1.59355e-07
9.89765e-09
1.4989e-07
9.46579e-09
1.40489e-07
9.40093e-09
1.30918e-07
9.57106e-09
1.20996e-07
9.92125e-09
1.10578e-07
1.04186e-08
9.95452e-08
1.10325e-08
8.78223e-08
1.17229e-08
7.54261e-08
1.23962e-08
6.51227e-08
1.03034e-08
2.28132e-08
4.23095e-08
3.4677e-07
9.3557e-09
3.37368e-07
4.79553e-08
3.22183e-07
4.50098e-08
3.07002e-07
3.91024e-08
2.92829e-07
3.23911e-08
2.80027e-07
2.64207e-08
2.68445e-07
2.26331e-08
2.57601e-07
2.07413e-08
2.47023e-07
2.00435e-08
2.36331e-07
2.00932e-08
2.25224e-07
2.06777e-08
2.13457e-07
2.16887e-08
2.00814e-07
2.30611e-08
1.87093e-07
2.47534e-08
1.72094e-07
2.67222e-08
1.55239e-07
2.92512e-08
1.35614e-07
2.99288e-08
4.39553e-08
1.14472e-07
3.65023e-07
1.05847e-08
3.66399e-07
4.65788e-08
3.61007e-07
5.04015e-08
3.52776e-07
4.73339e-08
3.43033e-07
4.21343e-08
3.32753e-07
3.66998e-08
3.22528e-07
3.28585e-08
3.12445e-07
3.08243e-08
3.02342e-07
3.01467e-08
2.91985e-07
3.04505e-08
2.8114e-07
3.15218e-08
2.69593e-07
3.32363e-08
2.57135e-07
3.55193e-08
2.43546e-07
3.83422e-08
2.28555e-07
4.17131e-08
2.11837e-07
4.59686e-08
1.91923e-07
4.98432e-08
6.40357e-08
1.71843e-07
3.91615e-07
1.15086e-08
3.94377e-07
4.38164e-08
3.92928e-07
5.18505e-08
3.88457e-07
5.18054e-08
3.81835e-07
4.87565e-08
3.73855e-07
4.468e-08
3.65191e-07
4.15217e-08
3.56159e-07
3.98568e-08
3.46795e-07
3.95108e-08
3.37001e-07
4.02439e-08
3.2663e-07
4.18929e-08
3.15516e-07
4.43509e-08
3.03479e-07
4.75563e-08
2.90316e-07
5.15055e-08
2.75769e-07
5.62597e-08
2.59616e-07
6.21214e-08
2.40587e-07
6.88721e-08
8.32505e-08
2.21372e-07
4.20548e-07
1.16733e-08
4.23331e-07
4.10336e-08
4.23663e-07
5.15183e-08
4.21429e-07
5.40399e-08
4.17022e-07
5.31626e-08
4.10939e-07
5.07633e-08
4.03745e-07
4.87161e-08
3.95806e-07
4.77953e-08
3.87264e-07
4.80529e-08
3.78117e-07
4.9391e-08
3.68291e-07
5.17188e-08
3.57674e-07
5.49677e-08
3.46128e-07
5.91025e-08
3.33486e-07
6.41471e-08
3.19552e-07
7.01938e-08
3.04137e-07
7.75363e-08
2.86578e-07
8.64311e-08
1.00528e-07
2.69301e-07
4.5103e-07
1.15521e-08
4.53719e-07
3.83447e-08
4.54982e-07
5.02546e-08
4.54176e-07
5.48462e-08
4.51372e-07
5.59666e-08
4.4682e-07
5.53159e-08
4.40937e-07
5.4599e-08
4.34063e-07
5.46688e-08
4.26377e-07
5.57385e-08
4.17937e-07
5.78316e-08
4.08725e-07
6.09306e-08
3.98681e-07
6.5012e-08
3.87712e-07
7.0071e-08
3.75708e-07
7.61515e-08
3.62546e-07
8.33557e-08
3.48132e-07
9.19507e-08
3.32229e-07
1.02334e-07
1.15716e-07
3.17041e-07
4.83441e-07
1.13833e-08
4.85993e-07
3.57923e-08
4.87743e-07
4.85052e-08
4.8786e-07
5.4729e-08
4.86217e-07
5.76088e-08
4.82887e-07
5.86468e-08
4.78146e-07
5.93393e-08
4.72276e-07
6.05392e-08
4.65453e-07
6.25612e-08
4.57765e-07
6.55197e-08
4.49236e-07
6.94596e-08
4.3985e-07
7.43985e-08
4.29563e-07
8.03575e-08
4.18325e-07
8.73891e-08
4.06095e-07
9.55865e-08
3.92884e-07
1.05161e-07
3.7881e-07
1.16408e-07
1.28979e-07
3.65547e-07
5.18124e-07
1.12173e-08
5.20472e-07
3.3444e-08
5.22436e-07
4.65419e-08
5.23141e-07
5.40233e-08
5.2234e-07
5.84104e-08
5.19979e-07
6.10074e-08
5.16223e-07
6.30958e-08
5.1128e-07
6.54815e-08
5.0531e-07
6.85316e-08
4.98409e-07
7.24205e-08
4.9063e-07
7.72389e-08
4.81993e-07
8.30356e-08
4.72502e-07
8.98481e-08
4.62166e-07
9.77255e-08
4.51016e-07
1.06736e-07
4.39163e-07
1.17014e-07
4.26915e-07
1.28657e-07
1.40478e-07
4.15415e-07
5.55294e-07
1.10568e-08
5.57391e-07
3.13475e-08
5.59401e-07
4.45317e-08
5.6047e-07
5.29546e-08
5.60275e-07
5.86048e-08
5.58686e-07
6.25967e-08
5.55774e-07
6.6008e-08
5.51685e-07
6.95705e-08
5.46549e-07
7.36674e-08
5.40463e-07
7.85061e-08
5.33498e-07
8.42047e-08
5.25703e-07
9.08306e-08
5.17124e-07
9.84264e-08
5.07822e-07
1.07028e-07
4.97891e-07
1.16667e-07
4.87515e-07
1.27391e-07
4.77066e-07
1.39106e-07
1.50263e-07
4.67281e-07
5.95132e-07
1.0902e-08
5.96969e-07
2.95113e-08
5.98931e-07
4.25694e-08
6.00216e-07
5.16695e-08
6.00466e-07
5.83547e-08
5.995e-07
6.35628e-08
5.97322e-07
6.81854e-08
5.94026e-07
7.28674e-08
5.89711e-07
7.79821e-08
5.8447e-07
8.3747e-08
5.78383e-07
9.02916e-08
5.71525e-07
9.76889e-08
5.63974e-07
1.05977e-07
5.55832e-07
1.1517e-07
5.4724e-07
1.25259e-07
5.38422e-07
1.36208e-07
5.29743e-07
1.47786e-07
1.58345e-07
5.21661e-07
6.37832e-07
1.07513e-08
6.39436e-07
2.79068e-08
6.41319e-07
4.06873e-08
6.42746e-07
5.02424e-08
6.43348e-07
5.77523e-08
6.42919e-07
6.3992e-08
6.41415e-07
6.96888e-08
6.38887e-07
7.5396e-08
6.3541e-07
8.14587e-08
6.3107e-07
8.80877e-08
6.25951e-07
9.54102e-08
6.20145e-07
1.03495e-07
6.13756e-07
1.12367e-07
6.06909e-07
1.22017e-07
5.9977e-07
1.32398e-07
5.92568e-07
1.4341e-07
5.85605e-07
1.54749e-07
1.64854e-07
5.79096e-07
5.74176e-07
1.06591e-08
5.75324e-07
2.67587e-08
5.76821e-07
3.91897e-08
5.78081e-07
4.89828e-08
5.78792e-07
5.7041e-08
5.78777e-07
6.40068e-08
5.77978e-07
7.04882e-08
5.76412e-07
7.69619e-08
5.74132e-07
8.37391e-08
5.71204e-07
9.10152e-08
5.67707e-07
9.89073e-08
5.63728e-07
1.07474e-07
5.59366e-07
1.16728e-07
5.54742e-07
1.26642e-07
5.49995e-07
1.37144e-07
5.45295e-07
1.4811e-07
5.40817e-07
1.59227e-07
1.68982e-07
5.36689e-07
6.99968e-07
1.05071e-08
7.01116e-07
2.56106e-08
7.02728e-07
3.75772e-08
7.04213e-07
4.74981e-08
7.0523e-07
5.60242e-08
7.05572e-07
6.36649e-08
7.05155e-07
7.09049e-08
7.0398e-07
7.81368e-08
7.02092e-07
8.56274e-08
6.99561e-07
9.35463e-08
6.96476e-07
1.01992e-07
6.92942e-07
1.11007e-07
6.89082e-07
1.20588e-07
6.85037e-07
1.30687e-07
6.80966e-07
1.41215e-07
6.77045e-07
1.52031e-07
6.73462e-07
1.62809e-07
1.71973e-07
6.70472e-07
8.53296e-07
1.02954e-08
8.54401e-07
2.45059e-08
8.56094e-07
3.58838e-08
8.578e-07
4.57926e-08
8.59164e-07
5.46604e-08
8.59961e-07
6.2868e-08
8.60086e-07
7.07792e-08
8.59525e-07
7.8698e-08
8.58316e-07
8.68368e-08
8.56533e-07
9.53287e-08
8.54281e-07
1.04245e-07
8.51683e-07
1.13605e-07
8.48888e-07
1.23383e-07
8.4606e-07
1.33515e-07
8.43379e-07
1.43896e-07
8.41028e-07
1.54383e-07
8.39196e-07
1.64641e-07
1.73072e-07
8.38097e-07
1.04023e-06
9.98696e-09
1.04134e-06
2.33967e-08
1.04319e-06
3.40381e-08
1.04523e-06
4.375e-08
1.04711e-06
5.2774e-08
1.04861e-06
6.13676e-08
1.04961e-06
6.97823e-08
1.05008e-06
7.82321e-08
1.05005e-06
8.68674e-08
1.0496e-06
9.57766e-08
1.04885e-06
1.04996e-07
1.04793e-06
1.14519e-07
1.04702e-06
1.24299e-07
1.04628e-06
1.34255e-07
1.0459e-06
1.44278e-07
1.04605e-06
1.54233e-07
1.04689e-06
1.63797e-07
1.71411e-07
1.04855e-06
1.26815e-06
9.51551e-09
1.26944e-06
2.2112e-08
1.27164e-06
3.18302e-08
1.2743e-06
4.1097e-08
1.27705e-06
5.0017e-08
1.27969e-06
5.87308e-08
1.28208e-06
6.73881e-08
1.2842e-06
7.6116e-08
1.28607e-06
8.49991e-08
1.28777e-06
9.40765e-08
1.28942e-06
1.03348e-07
1.29116e-06
1.12778e-07
1.29315e-06
1.22304e-07
1.29557e-06
1.31837e-07
1.29857e-06
1.41274e-07
1.30231e-06
1.50498e-07
1.30689e-06
1.59212e-07
1.65966e-07
1.31234e-06
1.54606e-06
8.7781e-09
1.54785e-06
2.03134e-08
1.55085e-06
2.88299e-08
1.55464e-06
3.73063e-08
1.5589e-06
4.57619e-08
1.5634e-06
5.42302e-08
1.56802e-06
6.27682e-08
1.57271e-06
7.14218e-08
1.5775e-06
8.02097e-08
1.58246e-06
8.91215e-08
1.58769e-06
9.81207e-08
1.59332e-06
1.07149e-07
1.59949e-06
1.16132e-07
1.60634e-06
1.24982e-07
1.61401e-06
1.33606e-07
1.6226e-06
1.41911e-07
1.63217e-06
1.4964e-07
1.5552e-07
1.64262e-06
1.88493e-06
7.61265e-09
1.88781e-06
1.74288e-08
1.89237e-06
2.42786e-08
1.8982e-06
3.14691e-08
1.905e-06
3.89669e-08
1.91252e-06
4.67108e-08
1.92061e-06
5.46703e-08
1.92922e-06
6.28132e-08
1.93834e-06
7.10939e-08
1.94801e-06
7.94536e-08
1.9583e-06
8.78229e-08
1.96933e-06
9.61247e-08
1.98118e-06
1.04278e-07
1.99396e-06
1.122e-07
2.00776e-06
1.19814e-07
2.02262e-06
1.27048e-07
2.03856e-06
1.33695e-07
1.38711e-07
2.05537e-06
2.29812e-06
5.82912e-09
2.30302e-06
1.25222e-08
2.31036e-06
1.69397e-08
2.31969e-06
2.21433e-08
2.33061e-06
2.80412e-08
2.34284e-06
3.4484e-08
2.35616e-06
4.13491e-08
2.37046e-06
4.85182e-08
2.38568e-06
5.58747e-08
2.40182e-06
6.33082e-08
2.41893e-06
7.07167e-08
2.43705e-06
7.80066e-08
2.45623e-06
8.50933e-08
2.47653e-06
9.19019e-08
2.49798e-06
9.83675e-08
2.52058e-06
1.04439e-07
2.54431e-06
1.09969e-07
1.14173e-07
2.56885e-06
1.68272e-06
4.17919e-09
1.68738e-06
7.85846e-09
1.69417e-06
1.01534e-08
1.70265e-06
1.36625e-08
1.71247e-06
1.82223e-08
1.72336e-06
2.35992e-08
1.73512e-06
2.95881e-08
1.74764e-06
3.59944e-08
1.76087e-06
4.26408e-08
1.7748e-06
4.93772e-08
1.78944e-06
5.60788e-08
1.80481e-06
6.26417e-08
1.82092e-06
6.89804e-08
1.8378e-06
7.50254e-08
1.85544e-06
8.07215e-08
1.87385e-06
8.60291e-08
1.89298e-06
9.08421e-08
9.45609e-08
1.91259e-06
1.46517e-06
2.46433e-09
1.46999e-06
3.0437e-09
1.47694e-06
3.19829e-09
1.48549e-06
5.11747e-09
1.49521e-06
8.49425e-09
1.50583e-06
1.29796e-08
1.51715e-06
1.82715e-08
1.52906e-06
2.40835e-08
1.54153e-06
3.01729e-08
1.55455e-06
3.63534e-08
1.56815e-06
4.24828e-08
1.58234e-06
4.8452e-08
1.59714e-06
5.41779e-08
1.61257e-06
5.95983e-08
1.62862e-06
6.46679e-08
1.64529e-06
6.93575e-08
1.66254e-06
7.3593e-08
7.69055e-08
1.6802e-06
1.27564e-06
8.39977e-10
1.28045e-06
-1.76452e-09
1.28736e-06
-3.7154e-09
1.29566e-06
-3.18291e-09
1.30491e-06
-7.51235e-10
1.31479e-06
3.09013e-09
1.32514e-06
7.92304e-09
1.33588e-06
1.33473e-08
1.347e-06
1.90504e-08
1.35854e-06
2.4815e-08
1.37053e-06
3.04911e-08
1.38301e-06
3.59716e-08
1.39601e-06
4.11818e-08
1.40954e-06
4.60711e-08
1.4236e-06
5.06066e-08
1.43818e-06
5.47703e-08
1.45326e-06
5.85155e-08
6.14728e-08
1.46869e-06
1.11045e-06
-5.18631e-10
1.11515e-06
-6.46572e-09
1.12188e-06
-1.04384e-08
1.1297e-06
-1.10082e-08
1.13818e-06
-9.22682e-09
1.147e-06
-5.73018e-09
1.15601e-06
-1.08683e-09
1.1652e-06
4.15811e-09
1.17462e-06
9.62823e-09
1.18434e-06
1.5089e-08
1.19444e-06
2.03927e-08
1.20497e-06
2.54458e-08
1.21596e-06
3.01913e-08
1.22743e-06
3.45958e-08
1.2394e-06
3.86423e-08
1.25184e-06
4.23264e-08
1.26473e-06
4.56258e-08
4.8249e-08
1.27796e-06
9.66458e-07
-1.45526e-09
9.71006e-07
-1.10139e-08
9.77419e-07
-1.68513e-08
9.84574e-07
-1.81631e-08
9.9203e-07
-1.66822e-08
9.99482e-07
-1.31823e-08
1.00684e-06
-8.44856e-09
1.0142e-06
-3.19913e-09
1.02169e-06
2.14271e-09
1.02942e-06
7.35549e-09
1.0375e-06
1.23129e-08
1.046e-06
1.69467e-08
1.05496e-06
2.12282e-08
1.06441e-06
2.51484e-08
1.07434e-06
2.87094e-08
1.08475e-06
3.19226e-08
1.09558e-06
3.47883e-08
3.70758e-08
1.10676e-06
8.40841e-07
-1.76078e-09
8.4532e-07
-1.54928e-08
8.51308e-07
-2.28399e-08
8.57557e-07
-2.4412e-08
8.63681e-07
-2.28062e-08
8.69417e-07
-1.89178e-08
8.74812e-07
-1.3844e-08
8.80091e-07
-8.47799e-09
8.85475e-07
-3.24121e-09
8.91134e-07
1.69653e-09
8.97186e-07
6.26046e-09
9.03709e-07
1.0424e-08
9.10744e-07
1.41933e-08
9.18303e-07
1.75889e-08
9.26378e-07
2.06346e-08
9.34943e-07
2.33577e-08
9.43951e-07
2.57798e-08
2.77185e-08
9.53309e-07
7.30823e-07
-8.55842e-10
7.35644e-07
-2.03129e-08
7.41072e-07
-2.82683e-08
7.46041e-07
-2.93809e-08
7.5036e-07
-2.71251e-08
7.53917e-07
-2.24754e-08
7.56993e-07
-1.69193e-08
7.59978e-07
-1.14632e-08
7.63173e-07
-6.43646e-09
7.66772e-07
-1.90226e-09
7.70891e-07
2.14097e-09
7.75591e-07
5.72449e-09
7.8089e-07
8.89405e-09
7.86784e-07
1.16956e-08
7.93243e-07
1.41753e-08
8.00227e-07
1.63735e-08
8.07675e-07
1.83318e-08
1.99102e-08
8.15483e-07
6.33911e-07
2.23969e-09
6.39765e-07
-2.61672e-08
6.44209e-07
-3.27116e-08
6.47212e-07
-3.23837e-08
6.48978e-07
-2.88916e-08
6.49749e-07
-2.32465e-08
6.50132e-07
-1.7302e-08
6.5067e-07
-1.20015e-08
6.51692e-07
-7.45806e-09
6.5336e-07
-3.57056e-09
6.55743e-07
-2.41864e-10
6.58856e-07
2.61099e-09
6.62681e-07
5.06899e-09
6.67181e-07
7.19588e-09
6.72301e-07
9.05537e-09
6.77981e-07
1.06933e-08
6.84146e-07
1.21673e-08
1.3389e-08
6.90667e-07
5.50069e-07
6.71756e-09
5.56523e-07
-3.26218e-08
5.58014e-07
-3.42026e-08
5.57417e-07
-3.17866e-08
5.55339e-07
-2.68132e-08
5.52515e-07
-2.04227e-08
5.4985e-07
-1.46369e-08
5.47905e-07
-1.00566e-08
5.46904e-07
-6.45754e-09
5.4689e-07
-3.55622e-09
5.47821e-07
-1.17306e-09
5.49641e-07
7.91194e-10
5.5228e-07
2.42971e-09
5.55668e-07
3.80852e-09
5.59712e-07
5.01062e-09
5.64336e-07
6.06961e-09
5.69459e-07
7.04449e-09
7.93538e-09
5.74912e-07
4.88291e-07
1.18712e-09
4.85978e-07
-3.03084e-08
4.78042e-07
-2.62671e-08
4.69253e-07
-2.29974e-08
4.60681e-07
-1.82413e-08
4.5311e-07
-1.28514e-08
4.47138e-07
-8.66509e-09
4.42875e-07
-5.79323e-09
4.40174e-07
-3.75709e-09
4.38831e-07
-2.21279e-09
4.38648e-07
-9.90185e-10
4.39464e-07
-2.45464e-11
4.4117e-07
7.2343e-10
4.43664e-07
1.31421e-09
4.46812e-07
1.86301e-09
4.50523e-07
2.35889e-09
4.54738e-07
2.82921e-09
3.37997e-09
4.59293e-07
4.21455e-07
3.91146e-07
3.64879e-07
3.41882e-07
3.2364e-07
3.10789e-07
3.02124e-07
2.96331e-07
2.92574e-07
2.90361e-07
2.89371e-07
2.89346e-07
2.9007e-07
2.91384e-07
2.93247e-07
2.95606e-07
2.98435e-07
3.01815e-07
3.79122e-08
-3.79122e-08
9.38208e-08
-5.59086e-08
1.54158e-07
-6.03373e-08
2.14093e-07
-5.99352e-08
2.71021e-07
-5.69281e-08
3.2409e-07
-5.30685e-08
3.75576e-07
-5.14857e-08
4.19054e-07
-4.34784e-08
4.55731e-07
-3.66769e-08
4.87669e-07
-3.19382e-08
5.07212e-07
-1.95433e-08
5.1674e-07
-9.52731e-09
5.17412e-07
-6.72746e-10
5.09175e-07
8.23755e-09
4.93584e-07
1.55906e-08
4.72165e-07
2.14192e-08
4.44078e-07
2.80875e-08
4.14228e-07
2.98497e-08
3.8435e-07
2.98778e-08
3.55291e-07
2.90588e-08
3.28661e-07
2.66305e-08
3.01866e-07
2.67944e-08
2.73319e-07
2.8547e-08
2.42929e-07
3.03907e-08
2.10874e-07
3.2055e-08
1.76617e-07
3.42569e-08
1.38042e-07
3.85746e-08
9.55335e-08
4.25086e-08
4.8249e-08
4.72846e-08
-6.95215e-09
5.52011e-08
-6.94746e-08
6.25225e-08
-1.37504e-07
6.80292e-08
-2.14761e-07
7.7257e-08
-3.00473e-07
8.5712e-08
-3.9387e-07
9.33975e-08
-4.94111e-07
1.00241e-07
-6.00239e-07
1.06128e-07
-7.11179e-07
1.1094e-07
-8.2577e-07
1.1459e-07
-9.42812e-07
1.17042e-07
-1.06113e-06
1.18314e-07
-1.1796e-06
1.1847e-07
-1.29721e-06
1.17611e-07
-1.41307e-06
1.15864e-07
-1.52644e-06
1.13367e-07
-1.6367e-06
1.1026e-07
-1.74338e-06
1.06677e-07
-1.84611e-06
1.02738e-07
-1.94466e-06
9.85491e-08
-2.03886e-06
9.41979e-08
-2.12861e-06
8.97539e-08
-2.21388e-06
8.52701e-08
-2.29467e-06
8.07842e-08
-2.37099e-06
7.63209e-08
-2.44288e-06
7.18939e-08
-2.51039e-06
6.75081e-08
-2.57355e-06
6.31616e-08
-2.6324e-06
5.88469e-08
-2.68695e-06
5.45525e-08
-2.73722e-06
5.0264e-08
-2.78318e-06
4.59647e-08
-2.82482e-06
4.16365e-08
-2.86208e-06
3.72603e-08
-2.89489e-06
3.28165e-08
-2.92318e-06
2.82868e-08
-2.94684e-06
2.36549e-08
-2.96574e-06
1.89034e-08
-2.97975e-06
1.40151e-08
-2.98877e-06
9.0106e-09
-2.99275e-06
3.9855e-09
-2.99209e-06
-6.61887e-10
-2.98727e-06
-4.81664e-09
-2.97858e-06
-8.69335e-09
-2.96612e-06
-1.24642e-08
-2.94991e-06
-1.6208e-08
-2.92995e-06
-1.99528e-08
-2.90625e-06
-2.37072e-08
-2.87878e-06
-2.747e-08
-2.84754e-06
-3.12351e-08
-2.81255e-06
-3.49931e-08
-2.77382e-06
-3.87321e-08
-2.73138e-06
-4.24381e-08
-2.68528e-06
-4.60947e-08
-2.6356e-06
-4.96834e-08
-2.58242e-06
-5.31836e-08
-2.52584e-06
-5.6572e-08
-2.46602e-06
-5.9823e-08
-2.40311e-06
-6.29087e-08
-2.33731e-06
-6.57983e-08
-2.26886e-06
-6.84588e-08
-2.198e-06
-7.08553e-08
-2.12505e-06
-7.29509e-08
-2.05034e-06
-7.47079e-08
-1.97425e-06
-7.60881e-08
-1.8972e-06
-7.70543e-08
-1.81963e-06
-7.75712e-08
-1.74202e-06
-7.76067e-08
-1.66489e-06
-7.71336e-08
-1.58876e-06
-7.61313e-08
-1.51417e-06
-7.45874e-08
-1.44167e-06
-7.24995e-08
-1.37179e-06
-6.98767e-08
-1.30505e-06
-6.67411e-08
-1.24192e-06
-6.31287e-08
-1.18283e-06
-5.90895e-08
-1.12815e-06
-5.46876e-08
-1.07815e-06
-4.99996e-08
-1.03303e-06
-4.5113e-08
-9.92914e-07
-4.01194e-08
-9.57804e-07
-3.51103e-08
-9.276e-07
-3.02036e-08
-9.02026e-07
-2.55749e-08
-8.8063e-07
-2.13956e-08
-8.63057e-07
-1.75727e-08
-8.49494e-07
-1.35634e-08
-8.40437e-07
-9.05654e-09
-8.2863e-07
-1.18072e-08
-8.21812e-07
-6.81862e-09
-8.23854e-07
2.04222e-09
-8.27157e-07
3.30347e-09
-8.35877e-07
8.71987e-09
-8.41426e-07
5.5492e-09
-8.47799e-07
6.37306e-09
-8.55474e-07
7.67451e-09
-8.6391e-07
8.43605e-09
-8.83875e-07
1.99651e-08
-8.97764e-07
1.38892e-08
-9.06584e-07
8.81945e-09
-9.19262e-07
1.26784e-08
-9.34769e-07
1.55072e-08
-9.50412e-07
1.56425e-08
-9.6486e-07
1.4448e-08
-9.74272e-07
9.4119e-09
-9.80332e-07
6.06083e-09
-9.90479e-07
1.0147e-08
-9.96833e-07
6.35353e-09
-1.00076e-06
3.92485e-09
-1.00313e-06
2.37503e-09
-9.99218e-07
-3.91444e-09
-9.95675e-07
-3.54367e-09
-9.91658e-07
-4.01682e-09
-9.78856e-07
-1.28021e-08
-9.66949e-07
-1.19071e-08
-9.47864e-07
-1.90849e-08
-9.24283e-07
-2.35805e-08
-9.03936e-07
-2.03478e-08
-8.77003e-07
-2.69324e-08
-8.44443e-07
-3.25604e-08
-8.08208e-07
-3.62345e-08
-7.70326e-07
-3.78826e-08
-7.29781e-07
-4.0545e-08
-6.85472e-07
-4.4309e-08
-6.33145e-07
-5.2327e-08
-5.78629e-07
-5.45151e-08
-5.23748e-07
-5.48811e-08
-4.62671e-07
-6.10776e-08
-4.01734e-07
-6.09368e-08
-3.38168e-07
-6.35657e-08
-2.72047e-07
-6.61217e-08
-2.02942e-07
-6.91041e-08
-1.35092e-07
-6.785e-08
-6.65722e-08
-6.85202e-08
3.69164e-09
-7.02639e-08
7.19567e-08
-6.82651e-08
1.39779e-07
-6.78224e-08
2.06654e-07
-6.68747e-08
2.72209e-07
-6.55553e-08
3.36175e-07
-6.39656e-08
3.98374e-07
-6.21997e-08
4.58681e-07
-6.03063e-08
5.16977e-07
-5.82957e-08
5.73134e-07
-5.61571e-08
6.2698e-07
-5.38464e-08
6.78246e-07
-5.12663e-08
7.26488e-07
-4.82421e-08
7.70983e-07
-4.44947e-08
8.10318e-07
-3.93348e-08
8.42177e-07
-3.18595e-08
8.57044e-07
-1.48668e-08
1.77253e-08
8.39319e-07
5.82536e-08
-9.61659e-08
1.24009e-07
-1.21664e-07
1.8267e-07
-1.18998e-07
2.33267e-07
-1.10532e-07
2.76525e-07
-1.00186e-07
3.12607e-07
-8.91508e-08
3.39056e-07
-7.79342e-08
3.61588e-07
-6.60103e-08
3.7771e-07
-5.27997e-08
3.85353e-07
-3.95803e-08
3.9092e-07
-2.51105e-08
3.92096e-07
-1.07038e-08
3.88146e-07
3.27803e-09
3.79673e-07
1.67103e-08
3.66014e-07
2.92499e-08
3.46977e-07
4.0456e-08
3.25116e-07
4.99486e-08
2.97903e-07
5.70623e-08
2.65221e-07
6.25603e-08
2.27483e-07
6.67959e-08
1.83378e-07
7.07361e-08
1.3489e-07
7.52824e-08
8.2578e-08
8.08588e-08
2.55012e-08
8.74676e-08
-3.77409e-08
9.5297e-08
-1.08425e-07
1.04941e-07
-1.86465e-07
1.16615e-07
-2.72928e-07
1.28971e-07
-3.6661e-07
1.40967e-07
-4.68098e-07
1.56689e-07
-5.77784e-07
1.72209e-07
-6.94397e-07
1.84642e-07
-8.14045e-07
1.96905e-07
-9.36455e-07
2.08122e-07
-1.06072e-06
2.17658e-07
-1.18563e-06
2.25152e-07
-1.30991e-06
2.30412e-07
-1.43235e-06
2.33382e-07
-1.55188e-06
2.34121e-07
-1.66762e-06
2.32778e-07
-1.77888e-06
2.29575e-07
-1.88518e-06
2.24774e-07
-1.98623e-06
2.18657e-07
-2.08187e-06
2.11504e-07
-2.17208e-06
2.03581e-07
-2.25694e-06
1.95121e-07
-2.33659e-06
1.86326e-07
-2.41121e-06
1.7736e-07
-2.48102e-06
1.6835e-07
-2.54621e-06
1.59391e-07
-2.607e-06
1.50549e-07
-2.6636e-06
1.41862e-07
-2.71617e-06
1.33353e-07
-2.76487e-06
1.25026e-07
-2.80985e-06
1.16875e-07
-2.85123e-06
1.08886e-07
-2.88911e-06
1.01038e-07
-2.92357e-06
9.33081e-08
-2.95469e-06
8.56728e-08
-2.98253e-06
7.81073e-08
-3.00716e-06
7.05887e-08
-3.02861e-06
6.30957e-08
-3.04696e-06
5.56106e-08
-3.06227e-06
4.81195e-08
-3.07459e-06
4.06141e-08
-3.08403e-06
3.30928e-08
-3.09069e-06
2.55623e-08
-3.09472e-06
1.80446e-08
-3.09629e-06
1.05824e-08
-3.09555e-06
3.24277e-09
-3.09214e-06
-4.07027e-09
-3.08557e-06
-1.13849e-08
-3.07551e-06
-1.87607e-08
-3.06179e-06
-2.618e-08
-3.04435e-06
-3.36436e-08
-3.02316e-06
-4.1151e-08
-2.99817e-06
-4.86965e-08
-2.96937e-06
-5.62692e-08
-2.93675e-06
-6.38529e-08
-2.90032e-06
-7.14273e-08
-2.86008e-06
-7.89679e-08
-2.81607e-06
-8.64462e-08
-2.76834e-06
-9.38296e-08
-2.71694e-06
-1.01081e-07
-2.66196e-06
-1.08161e-07
-2.60351e-06
-1.15021e-07
-2.54172e-06
-1.21613e-07
-2.47675e-06
-1.27882e-07
-2.40878e-06
-1.33768e-07
-2.33803e-06
-1.39206e-07
-2.26476e-06
-1.4413e-07
-2.18924e-06
-1.48468e-07
-2.1118e-06
-1.52146e-07
-2.0328e-06
-1.55092e-07
-1.95262e-06
-1.57232e-07
-1.8717e-06
-1.58496e-07
-1.79048e-06
-1.58819e-07
-1.70947e-06
-1.58147e-07
-1.62917e-06
-1.56433e-07
-1.55011e-06
-1.53648e-07
-1.47283e-06
-1.49779e-07
-1.39787e-06
-1.44833e-07
-1.32577e-06
-1.38842e-07
-1.25704e-06
-1.3186e-07
-1.19216e-06
-1.23969e-07
-1.13157e-06
-1.15278e-07
-1.07565e-06
-1.05919e-07
-1.02472e-06
-9.60468e-08
-9.79003e-07
-8.58315e-08
-9.38656e-07
-7.54575e-08
-9.0373e-07
-6.51295e-08
-8.74228e-07
-5.50768e-08
-8.50118e-07
-4.55052e-08
-8.31252e-07
-3.6439e-08
-8.17229e-07
-2.75867e-08
-8.07091e-07
-1.91939e-08
-8.05501e-07
-1.33974e-08
-8.06545e-07
-5.7744e-09
-8.07624e-07
3.12093e-09
-8.13422e-07
9.10134e-09
-8.19538e-07
1.48355e-08
-8.31035e-07
1.70469e-08
-8.44371e-07
1.97084e-08
-8.59016e-07
2.23195e-08
-8.75098e-07
2.45182e-08
-8.85764e-07
3.06309e-08
-9.0155e-07
2.96757e-08
-9.19763e-07
2.70325e-08
-9.35326e-07
2.82412e-08
-9.49225e-07
2.94065e-08
-9.62316e-07
2.87336e-08
-9.74073e-07
2.62047e-08
-9.86198e-07
2.15371e-08
-9.97431e-07
1.72931e-08
-1.00352e-06
1.62332e-08
-1.00926e-06
1.20995e-08
-1.01311e-06
7.77024e-09
-1.01369e-06
2.9601e-09
-1.01391e-06
-3.69328e-09
-1.00966e-06
-7.79323e-09
-1.00083e-06
-1.28492e-08
-9.9228e-07
-2.13541e-08
-9.77396e-07
-2.67916e-08
-9.60943e-07
-3.55378e-08
-9.42118e-07
-4.2406e-08
-9.16148e-07
-4.63175e-08
-8.88145e-07
-5.49349e-08
-8.57082e-07
-6.36242e-08
-8.22486e-07
-7.08297e-08
-7.83547e-07
-7.68219e-08
-7.4028e-07
-8.38122e-08
-6.92488e-07
-9.21006e-08
-6.42809e-07
-1.02007e-07
-5.89668e-07
-1.07656e-07
-5.31145e-07
-1.13404e-07
-4.72424e-07
-1.19799e-07
-4.09723e-07
-1.23638e-07
-3.44369e-07
-1.2892e-07
-2.76597e-07
-1.33893e-07
-2.09025e-07
-1.36676e-07
-1.39158e-07
-1.37717e-07
-6.70144e-08
-1.40664e-07
1.90919e-09
-1.39187e-07
7.12913e-08
-1.37647e-07
1.4026e-07
-1.36791e-07
2.08457e-07
-1.35072e-07
2.75456e-07
-1.32555e-07
3.4096e-07
-1.29469e-07
4.04765e-07
-1.26005e-07
4.6673e-07
-1.22271e-07
5.26741e-07
-1.18307e-07
5.84681e-07
-1.14097e-07
6.40387e-07
-1.09553e-07
6.93608e-07
-1.04487e-07
7.43936e-07
-9.85707e-08
7.90715e-07
-9.12734e-08
8.32875e-07
-8.14954e-08
8.68644e-07
-6.7628e-08
8.96453e-07
-4.26754e-08
-3.18809e-11
9.1421e-07
5.60872e-08
-1.52253e-07
1.0554e-07
-1.71117e-07
1.46151e-07
-1.59609e-07
1.79372e-07
-1.43754e-07
2.06029e-07
-1.26843e-07
2.26462e-07
-1.09583e-07
2.40695e-07
-9.21679e-08
2.49277e-07
-7.45916e-08
2.53085e-07
-5.66077e-08
2.51934e-07
-3.84301e-08
2.46922e-07
-2.0098e-08
2.38049e-07
-1.83113e-09
2.2522e-07
1.61077e-08
2.08458e-07
3.34715e-08
1.87689e-07
5.00195e-08
1.62676e-07
6.54682e-08
1.33062e-07
7.95625e-08
9.79156e-08
9.22092e-08
5.67792e-08
1.03697e-07
9.03087e-09
1.14544e-07
-4.56874e-08
1.25454e-07
-1.0723e-07
1.36825e-07
-1.75497e-07
1.49125e-07
-2.50722e-07
1.62693e-07
-3.33136e-07
1.77711e-07
-4.22409e-07
1.94214e-07
-5.17686e-07
2.11892e-07
-6.18795e-07
2.3008e-07
-7.25938e-07
2.4811e-07
-8.35478e-07
2.6623e-07
-9.46367e-07
2.83097e-07
-1.0592e-06
2.9747e-07
-1.17179e-06
3.09499e-07
-1.2827e-06
3.19028e-07
-1.39085e-06
3.25808e-07
-1.49543e-06
3.29738e-07
-1.59588e-06
3.3086e-07
-1.69184e-06
3.29344e-07
-1.78317e-06
3.2545e-07
-1.86988e-06
3.19492e-07
-1.95212e-06
3.11814e-07
-2.03011e-06
3.02759e-07
-2.10411e-06
2.92654e-07
-2.17439e-06
2.81793e-07
-2.24124e-06
2.70429e-07
-2.3049e-06
2.58775e-07
-2.36557e-06
2.46998e-07
-2.42344e-06
2.35227e-07
-2.47864e-06
2.23553e-07
-2.53129e-06
2.1204e-07
-2.58146e-06
2.00721e-07
-2.62921e-06
1.89613e-07
-2.67457e-06
1.78717e-07
-2.71757e-06
1.68019e-07
-2.75819e-06
1.575e-07
-2.79644e-06
1.47135e-07
-2.8323e-06
1.36896e-07
-2.86574e-06
1.26752e-07
-2.89675e-06
1.16676e-07
-2.92528e-06
1.06638e-07
-2.9513e-06
9.66129e-08
-2.97478e-06
8.65787e-08
-2.99569e-06
7.65161e-08
-3.01398e-06
6.64103e-08
-3.02962e-06
5.62508e-08
-3.04255e-06
4.60315e-08
-3.05274e-06
3.57495e-08
-3.0601e-06
2.5406e-08
-3.06453e-06
1.50042e-08
-3.06581e-06
4.53205e-09
-3.06382e-06
-6.06161e-09
-3.05841e-06
-1.68021e-08
-3.04948e-06
-2.76865e-08
-3.03696e-06
-3.8698e-08
-3.02078e-06
-4.98215e-08
-3.00089e-06
-6.10418e-08
-2.97725e-06
-7.23409e-08
-2.94982e-06
-8.36966e-08
-2.91859e-06
-9.5082e-08
-2.88355e-06
-1.06465e-07
-2.84471e-06
-1.17808e-07
-2.80209e-06
-1.29069e-07
-2.75572e-06
-1.40199e-07
-2.70566e-06
-1.51143e-07
-2.65198e-06
-1.61841e-07
-2.59477e-06
-1.72226e-07
-2.53417e-06
-1.82222e-07
-2.4703e-06
-1.9175e-07
-2.40334e-06
-2.00723e-07
-2.3335e-06
-2.09047e-07
-2.26101e-06
-2.16623e-07
-2.18613e-06
-2.23347e-07
-2.10916e-06
-2.29112e-07
-2.03045e-06
-2.33809e-07
-1.95035e-06
-2.37332e-07
-1.86927e-06
-2.39576e-07
-1.78764e-06
-2.40445e-07
-1.70594e-06
-2.39852e-07
-1.62464e-06
-2.37726e-07
-1.54428e-06
-2.34016e-07
-1.46536e-06
-2.28692e-07
-1.38844e-06
-2.21755e-07
-1.31405e-06
-2.13235e-07
-1.24271e-06
-2.03199e-07
-1.17493e-06
-1.91749e-07
-1.11118e-06
-1.79025e-07
-1.0519e-06
-1.65203e-07
-9.97455e-07
-1.50491e-07
-9.4816e-07
-1.35126e-07
-9.04251e-07
-1.19367e-07
-8.65891e-07
-1.03489e-07
-8.33196e-07
-8.77722e-08
-8.06243e-07
-7.24576e-08
-7.85011e-07
-5.76713e-08
-7.69179e-07
-4.34186e-08
-7.58418e-07
-2.99555e-08
-7.54011e-07
-1.78041e-08
-7.5366e-07
-6.12553e-09
-7.55555e-07
5.01591e-09
-7.60978e-07
1.45242e-08
-7.68705e-07
2.25632e-08
-7.80179e-07
2.85203e-08
-7.94074e-07
3.36037e-08
-8.09699e-07
3.79445e-08
-8.26602e-07
4.14208e-08
-8.41168e-07
4.51977e-08
-8.57777e-07
4.62838e-08
-8.76428e-07
4.56835e-08
-8.93799e-07
4.5613e-08
-9.09501e-07
4.51081e-08
-9.24122e-07
4.33551e-08
-9.37752e-07
3.98339e-08
-9.51156e-07
3.49419e-08
-9.63594e-07
2.97307e-08
-9.72482e-07
2.51216e-08
-9.79635e-07
1.92524e-08
-9.84506e-07
1.26412e-08
-9.86765e-07
5.21849e-09
-9.873e-07
-3.1582e-09
-9.84056e-07
-1.10369e-08
-9.77146e-07
-1.9759e-08
-9.6857e-07
-2.99303e-08
-9.55664e-07
-3.96978e-08
-9.40548e-07
-5.06543e-08
-9.22192e-07
-6.07619e-08
-8.98089e-07
-7.04205e-08
-8.71044e-07
-8.19792e-08
-8.41011e-07
-9.36578e-08
-8.0729e-07
-1.0455e-07
-7.69129e-07
-1.14983e-07
-7.26704e-07
-1.26237e-07
-6.80543e-07
-1.38262e-07
-6.32251e-07
-1.50299e-07
-5.80154e-07
-1.59753e-07
-5.23945e-07
-1.69614e-07
-4.65845e-07
-1.77898e-07
-4.0413e-07
-1.85353e-07
-3.39824e-07
-1.93226e-07
-2.73574e-07
-2.00144e-07
-2.06517e-07
-2.03734e-07
-1.37461e-07
-2.06772e-07
-6.76303e-08
-2.10495e-07
1.08027e-09
-2.07898e-07
6.98414e-08
-2.06408e-07
1.38127e-07
-2.05077e-07
2.05595e-07
-2.0254e-07
2.71885e-07
-1.98845e-07
3.36701e-07
-1.94286e-07
3.99831e-07
-1.89135e-07
4.61129e-07
-1.83569e-07
5.20486e-07
-1.77664e-07
5.77794e-07
-1.71405e-07
6.3291e-07
-1.64669e-07
6.85613e-07
-1.5719e-07
7.35555e-07
-1.48513e-07
7.82195e-07
-1.37913e-07
8.24769e-07
-1.2407e-07
8.62116e-07
-1.04975e-07
8.94205e-07
-7.47642e-08
-2.84543e-08
9.22627e-07
4.05245e-08
-1.92778e-07
6.70299e-08
-1.97622e-07
8.73812e-08
-1.7996e-07
1.03219e-07
-1.59592e-07
1.14836e-07
-1.3846e-07
1.22262e-07
-1.17009e-07
1.25487e-07
-9.5393e-08
1.24535e-07
-7.36399e-08
1.19673e-07
-5.17459e-08
1.10995e-07
-2.97522e-08
9.86279e-08
-7.73071e-09
8.25969e-08
1.41999e-08
6.28208e-08
3.58837e-08
3.91409e-08
5.71515e-08
1.13267e-08
7.78337e-08
-2.09774e-08
9.77724e-08
-5.82883e-08
1.16873e-07
-1.01237e-07
1.35158e-07
-1.50381e-07
1.52841e-07
-2.06138e-07
1.70301e-07
-2.68634e-07
1.8795e-07
-3.37923e-07
2.06114e-07
-4.13855e-07
2.25057e-07
-4.96052e-07
2.44889e-07
-5.83874e-07
2.65533e-07
-6.76364e-07
2.86705e-07
-7.72382e-07
3.07909e-07
-8.7079e-07
3.28488e-07
-9.70522e-07
3.47842e-07
-1.06977e-06
3.6548e-07
-1.16733e-06
3.80659e-07
-1.26271e-06
3.9284e-07
-1.35511e-06
4.01906e-07
-1.44391e-06
4.07829e-07
-1.52876e-06
4.10658e-07
-1.60957e-06
4.10544e-07
-1.68644e-06
4.0773e-07
-1.75962e-06
4.0252e-07
-1.82942e-06
3.95257e-07
-1.89622e-06
3.86289e-07
-1.96036e-06
3.75956e-07
-2.02217e-06
3.6457e-07
-2.08193e-06
3.52411e-07
-2.13985e-06
3.39716e-07
-2.19611e-06
3.26684e-07
-2.25081e-06
3.13474e-07
-2.30402e-06
3.00207e-07
-2.35576e-06
2.86974e-07
-2.40604e-06
2.73835e-07
-2.45483e-06
2.60827e-07
-2.50208e-06
2.47969e-07
-2.54773e-06
2.35263e-07
-2.59171e-06
2.22701e-07
-2.63396e-06
2.10265e-07
-2.67439e-06
1.97931e-07
-2.71293e-06
1.85672e-07
-2.74949e-06
1.73459e-07
-2.784e-06
1.61261e-07
-2.81637e-06
1.49049e-07
-2.84653e-06
1.36795e-07
-2.87439e-06
1.24472e-07
-2.89987e-06
1.12057e-07
-2.92288e-06
9.95301e-08
-2.94334e-06
8.68733e-08
-2.96117e-06
7.40722e-08
-2.97625e-06
6.11152e-08
-2.98849e-06
4.79924e-08
-2.99778e-06
3.46955e-08
-3.00399e-06
2.12166e-08
-3.007e-06
7.54008e-09
-3.00671e-06
-6.35671e-09
-3.00303e-06
-2.04812e-08
-2.99589e-06
-3.48245e-08
-2.98522e-06
-4.93681e-08
-2.97095e-06
-6.40905e-08
-2.95303e-06
-7.89679e-08
-2.93139e-06
-9.3973e-08
-2.90602e-06
-1.09074e-07
-2.87687e-06
-1.24233e-07
-2.84392e-06
-1.39407e-07
-2.80718e-06
-1.54546e-07
-2.76666e-06
-1.69595e-07
-2.72237e-06
-1.84487e-07
-2.67436e-06
-1.99153e-07
-2.62269e-06
-2.13512e-07
-2.56744e-06
-2.27476e-07
-2.50871e-06
-2.40949e-07
-2.44664e-06
-2.53824e-07
-2.38137e-06
-2.65989e-07
-2.3131e-06
-2.77321e-07
-2.24203e-06
-2.8769e-07
-2.16842e-06
-2.96961e-07
-2.09254e-06
-3.04994e-07
-2.0147e-06
-3.11645e-07
-1.93526e-06
-3.16773e-07
-1.8546e-06
-3.2024e-07
-1.77313e-06
-3.21915e-07
-1.6913e-06
-3.21679e-07
-1.60959e-06
-3.19434e-07
-1.52851e-06
-3.15102e-07
-1.44856e-06
-3.08634e-07
-1.3703e-06
-3.00016e-07
-1.29426e-06
-2.89273e-07
-1.22099e-06
-2.76475e-07
-1.151e-06
-2.61735e-07
-1.08481e-06
-2.45217e-07
-1.02288e-06
-2.27133e-07
-9.65636e-07
-2.07736e-07
-9.13444e-07
-1.87318e-07
-8.66608e-07
-1.66203e-07
-8.25366e-07
-1.44731e-07
-7.89895e-07
-1.23243e-07
-7.60305e-07
-1.02047e-07
-7.36596e-07
-8.13805e-08
-7.18592e-07
-6.14225e-08
-7.06093e-07
-4.24541e-08
-6.99046e-07
-2.48509e-08
-6.96654e-07
-8.51747e-09
-6.98067e-07
6.42846e-09
-7.03098e-07
1.95547e-08
-7.11333e-07
3.07987e-08
-7.22817e-07
4.00041e-08