/*--------------------------------*- C++ -*----------------------------------*\
  =========                 |
  \\      /  F ield         | OpenFOAM: The Open Source CFD Toolbox
   \\    /   O peration     | Website:  https://openfoam.org
    \\  /    A nd           | Version:  9
     \\/     M anipulation  |
\*---------------------------------------------------------------------------*/
FoamFile
{
    format      ascii;
    class       volVectorField;
    location    "0.16";
    object      U;
}
// * * * * * * * * * * * * * * * * * * * * * * * * * * * * * * * * * * * * * //

dimensions      [0 1 -1 0 0 0 0];

internalField   nonuniform List<vector> 
12225
(
(0.930269 -0.318397 0)
(0.89561 -0.0948772 0)
(0.800072 -0.00362979 0)
(0.701018 0.0117638 0)
(0.631973 0.00981016 0)
(0.584731 0.00689568 0)
(0.547555 0.00544155 0)
(0.515134 0.00498122 0)
(0.48502 0.00496083 0)
(0.455652 0.00512728 0)
(0.426049 0.00540683 0)
(0.395585 0.00578052 0)
(0.363761 0.00623434 0)
(0.330193 0.00673873 0)
(0.294534 0.0072338 0)
(0.25943 0.0075324 0)
(0.216635 0.00720356 0)
(0.158226 0.0396668 0)
(1.02703 0.075705 0)
(1.00476 0.0649219 0)
(0.967252 0.0355099 0)
(0.920619 0.02548 0)
(0.876587 0.0207827 0)
(0.837579 0.0170915 0)
(0.802278 0.0148051 0)
(0.76967 0.0138493 0)
(0.738576 0.013771 0)
(0.707698 0.0142557 0)
(0.675993 0.0151665 0)
(0.642678 0.0164506 0)
(0.607086 0.0180852 0)
(0.568642 0.0200559 0)
(0.526643 0.0223221 0)
(0.482104 0.0248902 0)
(0.424586 0.0244906 0)
(0.354948 0.0423902 0)
(1.00048 0.0241062 0)
(0.999987 0.0362368 0)
(0.995552 0.033782 0)
(0.976389 0.0316184 0)
(0.950584 0.0284609 0)
(0.922923 0.0250919 0)
(0.894817 0.0229058 0)
(0.867071 0.0220965 0)
(0.839632 0.0223455 0)
(0.811865 0.0234018 0)
(0.783071 0.0251519 0)
(0.752638 0.0275554 0)
(0.719986 0.0306097 0)
(0.684567 0.0343452 0)
(0.645677 0.0388086 0)
(0.603253 0.0444125 0)
(0.550982 0.0490535 0)
(0.491047 0.067526 0)
(0.997969 0.00654442 0)
(1.0008 0.0280727 0)
(1.0051 0.0347539 0)
(0.997386 0.0357418 0)
(0.982311 0.0342357 0)
(0.96335 0.0319387 0)
(0.94192 0.030383 0)
(0.919251 0.0300339 0)
(0.895838 0.0307927 0)
(0.871526 0.0325232 0)
(0.845943 0.0351631 0)
(0.81868 0.0387012 0)
(0.789295 0.0431656 0)
(0.757324 0.0486387 0)
(0.722163 0.0552693 0)
(0.683371 0.0635589 0)
(0.637345 0.0729969 0)
(0.586267 0.0939685 0)
(0.998801 0.00579813 0)
(1.00207 0.027112 0)
(1.00826 0.0354561 0)
(1.00608 0.0380724 0)
(0.997636 0.0382469 0)
(0.984931 0.0373369 0)
(0.968935 0.0367658 0)
(0.950793 0.0371719 0)
(0.931173 0.038648 0)
(0.910186 0.0411815 0)
(0.887698 0.0447794 0)
(0.863476 0.049476 0)
(0.837216 0.0553419 0)
(0.808569 0.0625137 0)
(0.777067 0.0712195 0)
(0.742288 0.0819791 0)
(0.702288 0.0951912 0)
(0.659939 0.116975 0)
(0.999217 0.00705764 0)
(1.00236 0.0260949 0)
(1.00871 0.0350076 0)
(1.00947 0.0390773 0)
(1.0052 0.040851 0)
(0.996912 0.0414013 0)
(0.985177 0.042009 0)
(0.970889 0.0433823 0)
(0.954689 0.0457496 0)
(0.936811 0.0492054 0)
(0.917266 0.0538285 0)
(0.895957 0.0597051 0)
(0.872709 0.0669514 0)
(0.847294 0.0757506 0)
(0.81941 0.0863794 0)
(0.788793 0.0993683 0)
(0.754846 0.115397 0)
(0.719572 0.137519 0)
(0.9993 0.00734336 0)
(1.00215 0.0244466 0)
(1.0081 0.033909 0)
(1.01037 0.0392459 0)
(1.0087 0.0424325 0)
(1.00351 0.0443926 0)
(0.995049 0.0462487 0)
(0.983959 0.0487082 0)
(0.970769 0.0520836 0)
(0.955741 0.0565511 0)
(0.938969 0.0622509 0)
(0.920453 0.069317 0)
(0.900123 0.077905 0)
(0.877872 0.0882277 0)
(0.853565 0.100578 0)
(0.827153 0.115447 0)
(0.798801 0.133504 0)
(0.769969 0.155337 0)
(0.999354 0.00719506 0)
(1.00183 0.0227568 0)
(1.00713 0.0325767 0)
(1.01007 0.0388962 0)
(1.00998 0.0432814 0)
(1.00693 0.0465399 0)
(1.00097 0.0496293 0)
(0.992491 0.0532166 0)
(0.981906 0.0576586 0)
(0.969459 0.0631862 0)
(0.955279 0.0699851 0)
(0.939431 0.0782256 0)
(0.92193 0.08809 0)
(0.902776 0.0998008 0)
(0.881978 0.113637 0)
(0.85968 0.130008 0)
(0.836395 0.149377 0)
(0.813061 0.170937 0)
(0.99944 0.00703955 0)
(1.00151 0.0212604 0)
(1.00606 0.0311863 0)
(1.00919 0.0382242 0)
(1.01004 0.0436054 0)
(1.00846 0.0480223 0)
(1.00439 0.0522768 0)
(0.99803 0.0569763 0)
(0.989681 0.0624921 0)
(0.979549 0.0690857 0)
(0.967776 0.0769708 0)
(0.954465 0.0863398 0)
(0.939697 0.0973859 0)
(0.923553 0.110323 0)
(0.906159 0.125393 0)
(0.887791 0.142899 0)
(0.86905 0.163052 0)
(0.850516 0.184319 0)
(0.999533 0.00694433 0)
(1.00123 0.0199853 0)
(1.00505 0.0298311 0)
(1.0081 0.0373774 0)
(1.00948 0.0435722 0)
(1.00893 0.049 0)
(1.00629 0.0543245 0)
(1.00166 0.0600853 0)
(0.995236 0.0666475 0)
(0.98718 0.0742832 0)
(0.977637 0.083218 0)
(0.966732 0.0936515 0)
(0.954588 0.105773 0)
(0.941348 0.119773 0)
(0.927212 0.135841 0)
(0.912518 0.154165 0)
(0.897834 0.17474 0)
(0.883512 0.195713 0)
(0.999606 0.00674381 0)
(1.00101 0.0187768 0)
(1.00419 0.0284235 0)
(1.00708 0.0363024 0)
(1.00877 0.0431325 0)
(1.00896 0.0494022 0)
(1.00747 0.0556573 0)
(1.00429 0.0623688 0)
(0.999559 0.0698819 0)
(0.993405 0.0784647 0)
(0.985961 0.0883417 0)
(0.977364 0.0997077 0)
(0.96776 0.112738 0)
(0.957325 0.127592 0)
(0.946291 0.144403 0)
(0.934996 0.163259 0)
(0.923906 0.184 0)
(0.913157 0.204737 0)
(0.999632 0.00691061 0)
(1.00074 0.0180747 0)
(1.00339 0.0274739 0)
(1.00603 0.0355556 0)
(1.00785 0.0428649 0)
(1.00852 0.0498087 0)
(1.00783 0.05684 0)
(1.00576 0.0643668 0)
(1.00239 0.0727051 0)
(0.997836 0.0821069 0)
(0.992212 0.0927822 0)
(0.985664 0.104908 0)
(0.978356 0.118635 0)
(0.970475 0.134082 0)
(0.962255 0.151329 0)
(0.953984 0.170387 0)
(0.946018 0.191038 0)
(0.93841 0.211506 0)
(0.999739 0.0066597 0)
(1.00068 0.0171595 0)
(1.00289 0.0262406 0)
(1.00531 0.0343961 0)
(1.0072 0.0420282 0)
(1.00823 0.0494718 0)
(1.0082 0.0571027 0)
(1.00706 0.0652716 0)
(1.00486 0.0742632 0)
(1.00168 0.0843095 0)
(0.997641 0.0956041 0)
(0.992877 0.108307 0)
(0.987552 0.122546 0)
(0.981854 0.138413 0)
(0.976004 0.155955 0)
(0.970253 0.175151 0)
(0.96491 0.195737 0)
(0.960113 0.215861 0)
(0.999821 0.0065561 0)
(1.00061 0.016438 0)
(1.00238 0.0251208 0)
(1.00455 0.0332713 0)
(1.00644 0.041164 0)
(1.00776 0.0490637 0)
(1.00833 0.0572698 0)
(1.00807 0.0660719 0)
(1.00703 0.0757145 0)
(1.00525 0.0863996 0)
(1.00286 0.0982935 0)
(0.999981 0.111528 0)
(0.996779 0.126201 0)
(0.993436 0.142368 0)
(0.990161 0.160037 0)
(0.987166 0.179157 0)
(0.984737 0.199422 0)
(0.982831 0.218848 0)
(0.999901 0.00639155 0)
(1.00059 0.0157166 0)
(1.00208 0.023913 0)
(1.00409 0.0319393 0)
(1.00605 0.0399647 0)
(1.00772 0.0481884 0)
(1.00895 0.0568386 0)
(1.00966 0.0661422 0)
(1.00986 0.0762963 0)
(1.00961 0.0874637 0)
(1.009 0.0997738 0)
(1.00817 0.113323 0)
(1.00725 0.128169 0)
(1.00642 0.144333 0)
(1.00584 0.161791 0)
(1.00567 0.180465 0)
(1.00621 0.200028 0)
(1.0071 0.21849 0)
(0.99998 0.00614831 0)
(1.00067 0.0149575 0)
(1.00207 0.0225577 0)
(1.00408 0.0303024 0)
(1.00628 0.0382849 0)
(1.00844 0.0466422 0)
(1.01045 0.0555383 0)
(1.01223 0.0651385 0)
(1.01379 0.0755879 0)
(1.01518 0.0870032 0)
(1.01648 0.0994716 0)
(1.01779 0.113048 0)
(1.01923 0.127755 0)
(1.02094 0.143579 0)
(1.02304 0.16047 0)
(1.02565 0.178343 0)
(1.02903 0.196863 0)
(1.03253 0.214111 0)
(1.00006 0.00577288 0)
(1.00086 0.0139863 0)
(1.0024 0.0208327 0)
(1.00467 0.0280743 0)
(1.00732 0.0357615 0)
(1.01018 0.0439735 0)
(1.01315 0.0528159 0)
(1.01617 0.0623956 0)
(1.01923 0.0728037 0)
(1.02237 0.0841087 0)
(1.02564 0.0963532 0)
(1.02913 0.109553 0)
(1.03293 0.123698 0)
(1.03712 0.138748 0)
(1.04179 0.154641 0)
(1.04699 0.171291 0)
(1.05303 0.188383 0)
(1.05887 0.204163 0)
(1.00013 0.00517088 0)
(1.00115 0.0124983 0)
(1.00311 0.0183287 0)
(1.00592 0.0247436 0)
(1.00932 0.0317758 0)
(1.01314 0.0394541 0)
(1.0173 0.047831 0)
(1.02174 0.0569589 0)
(1.02644 0.0668762 0)
(1.03141 0.0776039 0)
(1.0367 0.0891433 0)
(1.04234 0.101476 0)
(1.0484 0.114566 0)
(1.05492 0.128357 0)
(1.06195 0.142782 0)
(1.06949 0.157761 0)
(1.0779 0.173018 0)
(1.08578 0.187058 0)
(1.00019 0.00419553 0)
(1.00155 0.0100351 0)
(1.00422 0.0144116 0)
(1.00788 0.0195213 0)
(1.01234 0.0253938 0)
(1.01741 0.0320162 0)
(1.02298 0.0393931 0)
(1.029 0.0475241 0)
(1.03543 0.0563974 0)
(1.04225 0.065989 0)
(1.04949 0.0762639 0)
(1.05715 0.0871762 0)
(1.06526 0.0986707 0)
(1.07385 0.110684 0)
(1.08291 0.123149 0)
(1.09244 0.135995 0)
(1.10281 0.148996 0)
(1.11238 0.160958 0)
(1.00025 0.00320611 0)
(1.002 0.00682367 0)
(1.00542 0.00946856 0)
(1.01001 0.0130123 0)
(1.01551 0.0174605 0)
(1.02171 0.0227698 0)
(1.02846 0.0288999 0)
(1.03569 0.0357995 0)
(1.04336 0.0434091 0)
(1.05143 0.0516662 0)
(1.05992 0.060507 0)
(1.06884 0.0698664 0)
(1.0782 0.0796791 0)
(1.088 0.0898793 0)
(1.09825 0.100403 0)
(1.10891 0.111189 0)
(1.12032 0.122072 0)
(1.13103 0.132155 0)
(1.00031 0.0021303 0)
(1.00237 0.00368468 0)
(1.00643 0.00473092 0)
(1.01181 0.00688509 0)
(1.01813 0.0101177 0)
(1.02512 0.0143413 0)
(1.03264 0.0194655 0)
(1.04058 0.0253854 0)
(1.04891 0.0319953 0)
(1.05762 0.039199 0)
(1.0667 0.0469103 0)
(1.07619 0.0550512 0)
(1.08609 0.0635497 0)
(1.09641 0.07234 0)
(1.10715 0.0813612 0)
(1.11827 0.0905602 0)
(1.13007 0.0998091 0)
(1.1413 0.108402 0)
(1.00033 0.00105919 0)
(1.00263 0.000503839 0)
(1.0073 -4.40383e-05 0)
(1.01341 0.000825737 0)
(1.02039 0.00299483 0)
(1.02794 0.0063114 0)
(1.03591 0.0106217 0)
(1.04419 0.0157518 0)
(1.05276 0.0215427 0)
(1.06165 0.027868 0)
(1.07087 0.034624 0)
(1.08046 0.0417239 0)
(1.09045 0.0490941 0)
(1.10086 0.0566716 0)
(1.11167 0.0644018 0)
(1.12285 0.0722393 0)
(1.13468 0.080088 0)
(1.14605 0.0873866 0)
(1.00029 6.69747e-05 0)
(1.00271 -0.00265613 0)
(1.00799 -0.00473727 0)
(1.01476 -0.00497182 0)
(1.02222 -0.00365767 0)
(1.03006 -0.00101692 0)
(1.03811 0.00271575 0)
(1.04632 0.00727437 0)
(1.05469 0.0124433 0)
(1.0633 0.018066 0)
(1.07222 0.0240291 0)
(1.08151 0.0302438 0)
(1.0912 0.0366409 0)
(1.10132 0.043165 0)
(1.11187 0.049771 0)
(1.12282 0.0564239 0)
(1.13439 0.0630559 0)
(1.14567 0.0692187 0)
(1.00017 -0.000766546 0)
(1.00252 -0.00581555 0)
(1.00847 -0.00929851 0)
(1.01582 -0.0103722 0)
(1.0235 -0.00964901 0)
(1.03125 -0.00740468 0)
(1.03892 -0.00398555 0)
(1.04652 0.000222197 0)
(1.05417 0.00494913 0)
(1.06202 0.0100213 0)
(1.07018 0.0153206 0)
(1.07875 0.0207664 0)
(1.08778 0.0263021 0)
(1.09731 0.0318864 0)
(1.10733 0.0374878 0)
(1.11781 0.0430844 0)
(1.12892 0.048635 0)
(1.13994 0.0537798 0)
(0.999901 -0.00100006 0)
(1.00194 -0.00882902 0)
(1.00874 -0.0136411 0)
(1.0165 -0.0152418 0)
(1.02393 -0.0147848 0)
(1.03097 -0.0126142 0)
(1.03758 -0.00923882 0)
(1.04387 -0.00518443 0)
(1.05015 -0.000766736 0)
(1.05667 0.00384905 0)
(1.0636 0.00855898 0)
(1.07106 0.0132979 0)
(1.07911 0.0180317 0)
(1.08778 0.0227401 0)
(1.09708 0.0274092 0)
(1.10693 0.0320329 0)
(1.11746 0.0365962 0)
(1.12811 0.0408106 0)
(0.998968 0.000377746 0)
(1.00056 -0.0109947 0)
(1.00868 -0.0173478 0)
(1.01647 -0.0192976 0)
(1.02274 -0.0187594 0)
(1.02802 -0.0163157 0)
(1.03248 -0.012754 0)
(1.03652 -0.00873755 0)
(1.04064 -0.00457905 0)
(1.04523 -0.000409631 0)
(1.05046 0.0037069 0)
(1.05647 0.00773827 0)
(1.06329 0.0116764 0)
(1.07094 0.0155258 0)
(1.07938 0.0192942 0)
(1.08853 0.0229917 0)
(1.09843 0.0266297 0)
(1.10867 0.0299817 0)
(0.996748 0.00167794 0)
(0.997953 -0.0126715 0)
(1.00767 -0.0199174 0)
(1.01445 -0.022044 0)
(1.01787 -0.0211022 0)
(1.01959 -0.0180798 0)
(1.02035 -0.014211 0)
(1.02091 -0.0102523 0)
(1.02201 -0.00643668 0)
(1.02407 -0.00280593 0)
(1.02723 0.000632921 0)
(1.03153 0.00389383 0)
(1.03697 0.00699996 0)
(1.04352 0.00997237 0)
(1.05108 0.0128438 0)
(1.05953 0.0156377 0)
(1.06883 0.0183911 0)
(1.07868 0.0209443 0)
(0.996101 -0.0104883 0)
(0.996916 -0.0214031 0)
(1.00501 -0.0231278 0)
(1.00681 -0.0233927 0)
(1.00378 -0.0214463 0)
(0.998962 -0.0176448 0)
(0.993803 -0.0135122 0)
(0.98946 -0.00977902 0)
(0.986707 -0.0064986 0)
(0.985775 -0.00357462 0)
(0.986617 -0.000933042 0)
(0.989104 0.00147652 0)
(0.993138 0.00369829 0)
(0.998594 0.00577828 0)
(1.00532 0.00775955 0)
(1.01313 0.00967398 0)
(1.02189 0.0115777 0)
(1.03133 0.0134038 0)
(1.01646 -0.0643476 0)
(1.01143 -0.0605923 0)
(0.999671 -0.0350116 0)
(0.981383 -0.0245765 0)
(0.962523 -0.0197955 0)
(0.945752 -0.0153135 0)
(0.931759 -0.0112692 0)
(0.921102 -0.00804075 0)
(0.9139 -0.00547912 0)
(0.909785 -0.003365 0)
(0.908281 -0.00156316 0)
(0.908985 -2.38828e-05 0)
(0.911613 0.00130074 0)
(0.916019 0.0025383 0)
(0.921901 0.00371827 0)
(0.929019 0.00485089 0)
(0.937169 0.00598746 0)
(0.945991 0.00716338 0)
(0.96428 0.264902 0)
(0.96811 0.096329 0)
(0.913227 0.0137568 0)
(0.841942 -0.006118 0)
(0.787963 -0.00761611 0)
(0.752087 -0.00545384 0)
(0.72769 -0.00344104 0)
(0.710887 -0.00211895 0)
(0.699714 -0.00124057 0)
(0.692792 -0.000571554 0)
(0.689117 -1.10527e-05 0)
(0.688048 0.000428134 0)
(0.688972 0.000749366 0)
(0.691398 0.00109002 0)
(0.695197 0.00145315 0)
(0.700235 0.00181378 0)
(0.70634 0.00218966 0)
(0.712799 0.00265897 0)
(0.0266177 -0.0180091 1.00746e-21)
(0.0614101 -0.0444625 -8.35433e-22)
(0.107825 -0.0586736 0)
(0.16279 -0.0659741 0)
(0.216265 -0.0690475 0)
(0.266266 -0.071652 3.38929e-22)
(0.308464 -0.0824867 0)
(0.355415 -0.0679835 0)
(0.391407 -0.062316 0)
(0.419193 -0.064172 0)
(0.445917 -0.0375015 6.45878e-22)
(0.458198 -0.0206438 0)
(0.462911 -0.00757218 0)
(0.459347 0.00397864 0)
(0.44865 0.0140697 0)
(0.432802 0.0223654 1.24978e-21)
(0.409778 0.037688 0)
(0.382983 0.0385024 0)
(0.356581 0.0350326 0)
(0.329899 0.030338 0)
(0.306376 0.0196327 0)
(0.282456 0.0172378 0)
(0.257715 0.0198078 0)
(0.231592 0.0220846 1.77586e-21)
(0.203579 0.0227214 -1.9551e-21)
(0.173097 0.0232785 2.16471e-21)
(0.144003 0.0273551 2.62243e-21)
(0.110417 0.0254354 0)
(0.0572336 0.0334636 0)
(0.0196178 0.0519006 -3.7365e-21)
(-0.0240431 0.0578248 -5.19124e-21)
(-0.0944754 0.0515492 0)
(-0.157158 0.0581429 0)
(-0.230433 0.0650795 -6.5285e-21)
(-0.311453 0.0716994 0)
(-0.399141 0.0779237 0)
(-0.492706 0.083602 7.19708e-21)
(-0.591232 0.0885418 0)
(-0.693704 0.0925714 7.70667e-21)
(-0.799049 0.0955737 1.596e-20)
(-0.906186 0.0974983 0)
(-1.01407 0.0983585 0)
(-1.12174 0.0982209 0)
(-1.22832 0.0971901 0)
(-1.33309 0.0953942 0)
(-1.43541 0.09297 1.95092e-20)
(-1.5348 0.0900524 2.01013e-20)
(-1.63088 0.0867664 2.06824e-20)
(-1.72338 0.0832211 0)
(-1.81211 0.079508 -2.18002e-20)
(-1.89694 0.0756998 0)
(-1.97783 0.0718515 2.2844e-20)
(-2.05474 0.0680018 2.33341e-20)
(-2.12768 0.0641758 0)
(-2.19667 0.0603868 0)
(-2.26175 0.0566388 0)
(-2.32294 0.0529282 2.50606e-20)
(-2.38027 0.049246 0)
(-2.43376 0.0455788 0)
(-2.48341 0.0419102 0)
(-2.52921 0.0382218 0)
(-2.57115 0.0344949 0)
(-2.60917 0.0307118 0)
(-2.64321 0.026858 0)
(-2.67321 0.0229273 0)
(-2.69904 0.0189254 -2.74411e-20)
(-2.72061 0.0148721 0)
(-2.73781 0.0108245 0)
(-2.75055 0.00691093 2.77526e-20)
(-2.75867 0.00330675 2.78028e-20)
(-2.76207 0.00015789 0)
(-2.76148 -0.00253223 -2.77601e-20)
(-2.75736 -0.00496487 2.76759e-20)
(-2.74973 -0.00730381 0)
(-2.73862 -0.00960533 -2.73834e-20)
(-2.72405 -0.0118883 0)
(-2.70599 -0.0141592 0)
(-2.68443 -0.0164185 2.66239e-20)
(-2.65936 -0.0186633 0)
(-2.63076 -0.0208889 -2.59006e-20)
(-2.59865 -0.0230887 0)
(-2.56302 -0.025255 2.50046e-20)
(-2.52392 -0.0273785 2.4493e-20)
(-2.48139 -0.0294487 2.39402e-20)
(-2.43549 -0.0314533 4.66946e-20)
(-2.3863 -0.0333785 -4.54317e-20)
(-2.33393 -0.035209 0)
(-2.27852 -0.0369274 0)
(-2.22022 -0.0385148 0)
(-2.15922 -0.0399507 -3.96905e-20)
(-2.09574 -0.041213 -3.8109e-20)
(-2.03005 -0.0422786 3.64816e-20)
(-1.96244 -0.0431237 0)
(-1.89323 -0.0437244 -3.31194e-20)
(-1.8228 -0.0440576 -3.1401e-20)
(-1.75154 -0.0441017 -2.96695e-20)
(-1.6799 -0.0438379 0)
(-1.60834 -0.0432512 0)
(-1.53734 -0.0423318 0)
(-1.46743 -0.0410764 -2.28012e-20)
(-1.39911 -0.0394895 0)
(-1.3329 -0.0375843 0)
(-1.26932 -0.0353841 1.79742e-20)
(-1.20883 -0.0329223 0)
(-1.15188 -0.0302423 0)
(-1.09886 -0.0273971 1.36841e-20)
(-1.05008 -0.0244478 0)
(-1.0058 -0.0214613 0)
(-0.966181 -0.0185051 -1.01202e-20)
(-0.93127 -0.0156522 -9.11912e-21)
(-0.901055 -0.013012 0)
(-0.875472 -0.0107883 7.42191e-21)
(-0.854143 -0.00940653 0)
(-0.836297 -0.00922957 -6.14894e-21)
(-0.82222 -0.00950229 0)
(-0.812418 -0.0108527 -5.25224e-21)
(-0.803085 -0.0278113 -4.79389e-21)
(-0.795147 -0.0201862 0)
(-0.79423 0.000949509 0)
(-0.797551 0.00493124 0)
(-0.804557 0.0159209 0)
(-0.812469 0.00555212 0)
(-0.819172 -0.00540865 0)
(-0.826404 -0.0117836 0)
(-0.836313 -0.00650855 -4.96308e-21)
(-0.851371 0.0243367 5.34318e-21)
(-0.86842 0.00960996 0)
(-0.880476 -0.00842389 0)
(-0.892588 0.000181695 0)
(-0.907565 0.0108533 0)
(-0.923682 0.0132559 1.40104e-20)
(-0.940595 0.0127687 0)
(-0.952804 -0.00326811 -1.65115e-20)
(-0.961779 -0.010849 1.56704e-20)
(-0.971601 0.00395763 0)
(-0.980725 0.00318856 0)
(-0.987538 0.00397614 0)
(-0.991704 0.00440909 -1.68361e-20)
(-0.992198 -0.00268681 -1.70024e-20)
(-0.990453 0.00331951 0)
(-0.987893 0.00525899 -1.69476e-20)
(-0.980806 -0.00823282 -1.66233e-20)
(-0.970213 -0.00211676 1.64207e-20)
(-0.955429 -0.0171949 0)
(-0.935904 -0.0231743 0)
(-0.916045 -0.00614418 1.34619e-20)
(-0.893274 -0.0104983 0)
(-0.864382 -0.0169138 0)
(-0.830981 -0.0181592 0)
(-0.795455 -0.0138436 0)
(-0.757251 -0.0107559 -7.30673e-21)
(-0.715731 -0.0119334 -5.90608e-21)
(-0.666804 -0.0266143 0)
(-0.614553 -0.0307329 -2.04165e-21)
(-0.559928 -0.0257568 0)
(-0.50118 -0.0322433 0)
(-0.440668 -0.0271728 3.61111e-21)
(-0.377925 -0.0272389 0)
(-0.31141 -0.0294168 7.41372e-21)
(-0.242485 -0.0327912 0)
(-0.174698 -0.0288257 0)
(-0.102747 -0.0275116 1.44437e-20)
(-0.031063 -0.034567 0)
(0.038333 -0.0321326 1.46316e-20)
(0.109418 -0.0315501 0)
(0.179383 -0.0307801 0)
(0.248355 -0.0298919 0)
(0.31603 -0.028949 -1.50007e-20)
(0.382212 -0.02798 0)
(0.446746 -0.0269923 1.43071e-20)
(0.509484 -0.0259842 0)
(0.570298 -0.0249522 0)
(0.629034 -0.0238849 0)
(0.68546 -0.0227538 0)
(0.73921 -0.0215051 0)
(0.789629 -0.0200549 0)
(0.83584 -0.0181703 0)
(0.874838 -0.0156721 -1.88316e-20)
(0.907315 -0.00951885 0)
(0.903003 0.00107102 0)
(0.0331631 -0.127678 -2.62285e-21)
(0.0855876 -0.169882 2.11079e-21)
(0.136943 -0.17159 0)
(0.185294 -0.162422 -7.88325e-22)
(0.227547 -0.148663 0)
(0.262899 -0.132911 -2.736e-22)
(0.290471 -0.117079 -9.73696e-24)
(0.312677 -0.10123 -2.57079e-22)
(0.329921 -0.0813323 0)
(0.340532 -0.0621379 -7.34206e-22)
(0.346567 -0.0414891 -3.96593e-22)
(0.349515 -0.0206069 0)
(0.348395 -0.000211339 0)
(0.34335 0.0188468 0)
(0.333788 0.0357255 0)
(0.319439 0.0495247 -7.90716e-22)
(0.300825 0.0594733 0)
(0.279296 0.0655797 1.65204e-21)
(0.252646 0.0696037 0)
(0.221376 0.0713614 0)
(0.184789 0.0730248 -2.0587e-21)
(0.143321 0.0755277 0)
(0.098334 0.0791269 2.5004e-21)
(0.0495124 0.0836677 -1.5596e-21)
(-0.00426849 0.0895024 1.70241e-21)
(-0.0638571 0.0979087 -1.81362e-21)
(-0.129178 0.110107 -1.92281e-21)
(-0.207274 0.124814 0)
(-0.284469 0.134363 0)
(-0.370869 0.150574 2.32743e-21)
(-0.470132 0.171915 -1.9189e-21)
(-0.57166 0.188802 0)
(-0.678053 0.204668 0)
(-0.787734 0.219033 2.99795e-21)
(-0.899608 0.23141 0)
(-1.01276 0.241403 0)
(-1.12605 0.248769 -3.59056e-21)
(-1.23832 0.253403 0)
(-1.34854 0.255334 3.90288e-21)
(-1.45581 0.254709 -8.61733e-21)
(-1.55942 0.251766 0)
(-1.65884 0.246812 0)
(-1.75373 0.240182 -2.04124e-20)
(-1.84388 0.23222 -2.15705e-20)
(-1.9292 0.223255 -2.27257e-20)
(-2.00974 0.213587 1.19263e-20)
(-2.08557 0.203475 -1.25057e-20)
(-2.15686 0.193134 -3.91616e-20)
(-2.22378 0.182737 2.71809e-20)
(-2.2865 0.172415 1.41226e-20)
(-2.34522 0.162261 0)
(-2.40012 0.152338 -1.51175e-20)
(-2.45137 0.142683 1.5555e-20)
(-2.4991 0.133313 0)
(-2.54346 0.124227 0)
(-2.58455 0.115417 0)
(-2.62246 0.106862 -1.72161e-20)
(-2.65729 0.0985406 0)
(-2.68909 0.0904257 3.57568e-20)
(-2.71792 0.08249 0)
(-2.74384 0.0747055 3.68914e-20)
(-2.76688 0.0670448 0)
(-2.78709 0.0594818 -3.78068e-20)
(-2.80452 0.0519917 0)
(-2.81922 0.0445524 3.84947e-20)
(-2.83126 0.0371453 -1.94388e-20)
(-2.84072 0.0297567 0)
(-2.84771 0.0223891 -3.90834e-20)
(-2.85236 0.0150971 -1.94819e-20)
(-2.85485 0.00801267 -1.94791e-20)
(-2.85526 0.00127687 0)
(-2.85301 -0.00511232 -1.95643e-20)
(-2.84755 -0.0112684 -1.91849e-20)
(-2.83879 -0.0172923 0)
(-2.82662 -0.0232353 1.88201e-20)
(-2.81097 -0.0291166 -3.75461e-20)
(-2.79182 -0.0349403 0)
(-2.76912 -0.0407015 -1.8027e-20)
(-2.74286 -0.04639 0)
(-2.71302 -0.0519917 5.25275e-20)
(-2.67961 -0.0574896 0)
(-2.64263 -0.0628637 -5.01802e-20)
(-2.6021 -0.0680913 -1.60909e-20)
(-2.55808 -0.0731473 1.62632e-20)
(-2.51061 -0.0780038 3.16036e-20)
(-2.45978 -0.0826301 -3.06346e-20)
(-2.40568 -0.0869928 0)
(-2.34845 -0.091056 0)
(-2.28824 -0.0947809 0)
(-2.22521 -0.0981265 7.58943e-20)
(-2.1596 -0.10105 2.35825e-20)
(-2.09164 -0.103506 -2.23958e-20)
(-2.0216 -0.105452 0)
(-1.94979 -0.106842 -2.17467e-20)
(-1.87658 -0.107635 1.88288e-20)
(-1.80232 -0.107791 1.76589e-20)
(-1.72745 -0.107278 0)
(-1.65239 -0.106069 0)
(-1.57763 -0.104147 0)
(-1.50366 -0.101506 1.32351e-20)
(-1.43099 -0.0981532 0)
(-1.36013 -0.0941099 -2.39676e-20)
(-1.2916 -0.0894145 -3.236e-20)
(-1.2259 -0.0841222 2.01951e-20)
(-1.16353 -0.0783054 0)
(-1.10492 -0.0720529 8.94438e-21)
(-1.05048 -0.0654679 0)
(-1.00056 -0.0586654 1.38403e-20)
(-0.955442 -0.0517668 -6.62853e-21)
(-0.915312 -0.0448954 -5.97124e-21)
(-0.880276 -0.0381868 0)
(-0.850375 -0.0317869 -1.37441e-20)
(-0.825654 -0.025767 8.47745e-21)
(-0.806072 -0.0199908 3.77883e-21)
(-0.791073 -0.0141252 0)
(-0.780389 -0.00784596 3.30372e-21)
(-0.775844 -0.00217482 9.59586e-21)
(-0.776788 0.0010796 0)
(-0.778619 0.00350761 5.57557e-21)
(-0.782953 0.00543428 5.58841e-21)
(-0.789826 0.00766072 5.75295e-21)
(-0.799243 0.00989517 0)
(-0.812259 0.0133755 0)
(-0.827766 0.0165227 0)
(-0.843064 0.0157589 -3.54256e-21)
(-0.8568 0.0151962 -3.88199e-21)
(-0.871437 0.0161033 0)
(-0.889542 0.017195 -8.87764e-21)
(-0.906693 0.0170005 -9.22498e-21)
(-0.922248 0.0158415 0)
(-0.93722 0.0152116 -1.05243e-20)
(-0.950204 0.0141805 -2.18881e-20)
(-0.963644 0.013832 1.20805e-20)
(-0.976418 0.0125508 1.18518e-20)
(-0.985937 0.0102188 0)
(-0.993407 0.00729054 0)
(-0.9993 0.00461252 0)
(-1.00317 0.00202541 1.25824e-20)
(-1.00508 -0.000886497 -1.28705e-20)
(-1.00408 -0.00374803 -2.54295e-20)
(-0.999513 -0.00635532 1.2794e-20)
(-0.99217 -0.00848792 -1.2811e-20)
(-0.981951 -0.010956 -1.22309e-20)
(-0.967841 -0.0133487 0)
(-0.951229 -0.0160505 0)
(-0.930545 -0.0200239 1.03992e-20)
(-0.905012 -0.0241212 0)
(-0.876595 -0.0274799 0)
(-0.844814 -0.0307435 -1.52691e-20)
(-0.809119 -0.0340884 0)
(-0.769149 -0.0376549 -5.99485e-21)
(-0.72447 -0.0413742 4.26659e-21)
(-0.675821 -0.0439721 0)
(-0.624871 -0.0448757 -2.73021e-21)
(-0.569452 -0.0479137 0)
(-0.510017 -0.0503351 0)
(-0.449628 -0.0523855 -2.45867e-21)
(-0.385256 -0.0545576 6.29241e-21)
(-0.317203 -0.0562498 -5.05525e-21)
(-0.247972 -0.0572086 0)
(-0.17956 -0.057633 0)
(-0.105504 -0.0595128 8.41906e-21)
(-0.032444 -0.0572786 0)
(0.0373812 -0.0562936 8.41163e-21)
(0.109341 -0.0554892 0)
(0.180585 -0.0543138 0)
(0.250991 -0.0528367 0)
(0.320235 -0.0511611 1.04155e-20)
(0.388065 -0.0493702 0)
(0.4543 -0.0475083 -1.01636e-20)
(0.518806 -0.0455891 0)
(0.581462 -0.0436058 0)
(0.642124 -0.0415243 1.76841e-20)
(0.700576 -0.0392721 -1.69198e-20)
(0.75648 -0.0367223 0)
(0.809265 -0.0336738 0)
(0.858124 -0.0296735 0)
(0.901274 -0.0241117 4.21087e-20)
(0.937465 -0.0131556 0)
(0.963766 0.00521896 -2.70489e-20)
(0.0320145 -0.246515 2.12913e-22)
(0.0760209 -0.290528 -2.09449e-21)
(0.112802 -0.273496 0)
(0.145246 -0.246878 1.17792e-21)
(0.17211 -0.218364 0)
(0.193193 -0.189664 0)
(0.208611 -0.161185 -8.01336e-23)
(0.218751 -0.132493 2.04792e-22)
(0.22438 -0.103264 4.1463e-22)
(0.225527 -0.0740043 5.62265e-22)
(0.222839 -0.0444544 0)
(0.216764 -0.0154193 0)
(0.207209 0.0124504 -9.02107e-22)
(0.194167 0.0388467 -1.96965e-21)
(0.177601 0.0633399 2.11672e-21)
(0.157338 0.0854492 0)
(0.133066 0.104656 2.39144e-21)
(0.104413 0.120398 -1.32846e-21)
(0.0704577 0.133291 0)
(0.0309515 0.144483 2.88419e-21)
(-0.0148646 0.155379 1.68305e-21)
(-0.0669991 0.166771 -3.19772e-21)
(-0.125129 0.179498 -1.87112e-21)
(-0.189411 0.194111 0)
(-0.260149 0.210978 3.76805e-21)
(-0.337282 0.23034 4.01571e-21)
(-0.420211 0.251889 0)
(-0.509175 0.274476 4.64508e-21)
(-0.602905 0.297383 0)
(-0.70065 0.321533 5.44377e-21)
(-0.80076 0.344239 3.04226e-21)
(-0.902133 0.363565 0)
(-1.00436 0.380294 0)
(-1.10582 0.393996 0)
(-1.20535 0.404053 0)
(-1.30209 0.410162 0)
(-1.39541 0.412288 0)
(-1.48491 0.410603 1.10483e-20)
(-1.57035 0.405442 -1.7731e-20)
(-1.65169 0.397241 0)
(-1.729 0.386499 0)
(-1.80244 0.373732 0)
(-1.87224 0.359437 -3.13609e-22)
(-1.93865 0.344075 1.61088e-20)
(-2.00192 0.328045 3.42892e-20)
(-2.06227 0.311686 -3.60384e-20)
(-2.11991 0.295267 -1.89772e-20)
(-2.17501 0.278995 1.96186e-20)
(-2.22772 0.263021 1.48284e-22)
(-2.27814 0.247444 2.13524e-20)
(-2.32636 0.232324 0)
(-2.37243 0.21769 2.27947e-20)
(-2.41638 0.203544 6.69858e-23)
(-2.45824 0.189871 0)
(-2.49801 0.176643 0)
(-2.53568 0.163827 -2.52841e-20)
(-2.57125 0.151383 0)
(-2.60468 0.139271 0)
(-2.63595 0.127453 2.68101e-20)
(-2.66503 0.115892 5.4362e-20)
(-2.69188 0.104555 -2.74975e-20)
(-2.71648 0.0934155 0)
(-2.73877 0.0824516 2.80985e-20)
(-2.75873 0.0716487 0)
(-2.77632 0.0609995 2.87321e-20)
(-2.79149 0.0505037 2.86655e-20)
(-2.8042 0.0401659 -5.7804e-20)
(-2.81438 0.0299915 -2.913e-20)
(-2.82194 0.0199776 0)
(-2.82673 0.0100918 5.79643e-20)
(-2.8286 0.00026154 0)
(-2.82738 -0.00956764 8.58325e-20)
(-2.82296 -0.0193773 5.69511e-20)
(-2.81526 -0.0291391 5.64177e-20)
(-2.80421 -0.0388395 -5.5786e-20)
(-2.78974 -0.0484687 8.22476e-20)
(-2.7718 -0.0580139 0)
(-2.75035 -0.067458 0)
(-2.72536 -0.0767797 -5.23034e-20)
(-2.6968 -0.0859534 -7.6377e-20)
(-2.66468 -0.0949494 0)
(-2.62898 -0.103734 2.39043e-20)
(-2.58973 -0.11227 0)
(-2.54696 -0.120516 -6.85007e-20)
(-2.50071 -0.128427 1.0731e-21)
(-2.45106 -0.135953 -1.1094e-21)
(-2.3981 -0.14304 4.14233e-20)
(-2.34194 -0.149634 0)
(-2.28271 -0.155671 -3.81321e-20)
(-2.22059 -0.16109 1.22171e-21)
(-2.15577 -0.165825 0)
(-2.08848 -0.169807 0)
(-2.01896 -0.172969 0)
(-1.94752 -0.175244 2.82894e-20)
(-1.87448 -0.176571 0)
(-1.80019 -0.17689 0)
(-1.72505 -0.176151 0)
(-1.64947 -0.174316 0)
(-1.57392 -0.171356 0)
(-1.49885 -0.167263 1.97331e-20)
(-1.42478 -0.162044 0)
(-1.35221 -0.155729 1.57953e-20)
(-1.28164 -0.148369 1.44894e-20)
(-1.2136 -0.140043 -1.32543e-20)
(-1.14858 -0.13085 0)
(-1.08707 -0.120918 -1.10048e-20)
(-1.02949 -0.110392 0)
(-0.97625 -0.0994382 -9.06012e-21)
(-0.927694 -0.0882362 8.20537e-21)
(-0.884095 -0.0769744 2.31743e-20)
(-0.845658 -0.0658503 0)
(-0.812525 -0.0550626 1.89624e-20)
(-0.784817 -0.0447648 6.03208e-21)
(-0.762613 -0.0349932 0)
(-0.745709 -0.0256829 9.7728e-21)
(-0.733713 -0.0170527 9.09224e-21)
(-0.727375 -0.00950858 -1.30304e-20)
(-0.726353 -0.00216585 0)
(-0.727975 0.00485373 -4.05578e-21)
(-0.732352 0.0105705 -4.07085e-21)
(-0.739605 0.0152982 -1.22607e-20)
(-0.749919 0.0185629 0)
(-0.76332 0.0216166 0)
(-0.778703 0.0242248 0)
(-0.795815 0.0261619 -4.87988e-21)
(-0.811957 0.0284818 0)
(-0.827968 0.0287748 0)
(-0.846612 0.0281258 6.65419e-21)
(-0.865526 0.0280478 6.98899e-21)
(-0.882763 0.0277485 0)
(-0.898685 0.0266751 0)
(-0.913789 0.0243434 1.6494e-20)
(-0.92832 0.0214094 0)
(-0.942489 0.0184356 -1.80064e-20)
(-0.954225 0.0158317 -1.83192e-20)
(-0.963461 0.0124387 0)
(-0.970702 0.00864624 0)
(-0.975578 0.00459597 1.96788e-20)
(-0.978498 -0.000122231 -1.65997e-22)
(-0.978584 -0.00422184 -2.51168e-22)
(-0.97473 -0.00884514 0)
(-0.968478 -0.0144252 3.9021e-20)
(-0.959327 -0.0194077 0)
(-0.946683 -0.0248922 0)
(-0.93147 -0.0295976 0)
(-0.911611 -0.0343571 -1.57128e-20)
(-0.887179 -0.0403036 0)
(-0.859913 -0.0460715 2.78266e-20)
(-0.829287 -0.0511619 1.18361e-20)
(-0.794388 -0.0559726 0)
(-0.754926 -0.0613443 8.61971e-21)
(-0.711334 -0.067134 0)
(-0.664518 -0.0725944 0)
(-0.614869 -0.0761581 1.10441e-20)
(-0.560811 -0.0805692 -3.83965e-21)
(-0.503405 -0.0836678 0)
(-0.443447 -0.0865613 4.03477e-21)
(-0.379879 -0.0898879 -4.8267e-21)
(-0.31339 -0.0927656 0)
(-0.245543 -0.0935189 0)
(-0.176938 -0.0944041 0)
(-0.105038 -0.0961644 -3.55653e-20)
(-0.0335998 -0.0934917 0)
(0.0364325 -0.0921078 -1.38934e-20)
(0.107531 -0.0909774 0)
(0.178009 -0.0893242 0)
(0.247667 -0.0871777 0)
(0.316186 -0.0846842 0)
(0.383303 -0.0819731 0)
(0.448828 -0.0791233 0)
(0.512631 -0.0761671 -2.91248e-20)
(0.5746 -0.0730981 0)
(0.634604 -0.0698649 -1.43133e-20)
(0.692453 -0.0663578 4.02606e-20)
(0.747852 -0.0623878 0)
(0.800326 -0.0576531 0)
(0.849212 -0.0515764 -2.30789e-20)
(0.893394 -0.0432726 -2.29346e-20)
(0.931969 -0.0297626 2.15389e-20)
(0.965599 -0.00820544 2.26214e-20)
(0.0212582 -0.338379 3.87136e-21)
(0.0507879 -0.357433 2.56872e-21)
(0.0692962 -0.325359 1.19495e-21)
(0.0850831 -0.288053 3.5573e-22)
(0.0974572 -0.249968 0)
(0.106049 -0.211994 -1.31822e-22)
(0.110849 -0.174414 -7.4134e-23)
(0.111901 -0.137181 0)
(0.10936 -0.100247 -3.63182e-22)
(0.103369 -0.0637078 0)
(0.0940499 -0.027648 1.07838e-21)
(0.0814771 0.00762967 0)
(0.0655988 0.0418033 7.82169e-22)
(0.0463189 0.0745754 1.71144e-21)
(0.0234608 0.105628 -1.84316e-21)
(-0.00323938 0.134629 0)
(-0.0342038 0.161383 -2.04358e-21)
(-0.0699311 0.185906 0)
(-0.111 0.208668 0)
(-0.157867 0.230469 -2.28457e-21)
(-0.210825 0.252168 0)
(-0.269927 0.274473 2.13362e-22)
(-0.335134 0.297994 0)
(-0.406237 0.323066 0)
(-0.482802 0.349731 -1.64558e-22)
(-0.564111 0.377699 -3.1391e-21)
(-0.649216 0.406284 -3.29432e-21)
(-0.737142 0.434363 -3.63802e-21)
(-0.82679 0.4611 0)
(-0.916912 0.485958 -8.70655e-21)
(-1.00614 0.507344 0)
(-1.09366 0.524182 -5.41789e-21)
(-1.17892 0.536493 0)
(-1.26128 0.544188 0)
(-1.34026 0.54725 7.24452e-21)
(-1.41569 0.545846 0)
(-1.48757 0.540323 -8.60061e-21)
(-1.55607 0.531153 4.51873e-22)
(-1.62145 0.518885 1.95712e-20)
(-1.68403 0.504096 -2.14408e-20)
(-1.74414 0.48735 0)
(-1.80208 0.469172 0)
(-1.85813 0.450027 -1.32009e-20)
(-1.91251 0.430312 0)
(-1.96538 0.410354 -1.38976e-20)
(-2.01688 0.390409 1.45912e-20)
(-2.06709 0.370671 1.52686e-20)
(-2.11603 0.351281 0)
(-2.16372 0.332328 -1.65664e-20)
(-2.21014 0.313866 -1.71834e-20)
(-2.25526 0.295917 3.58823e-20)
(-2.29902 0.278482 -1.83467e-20)
(-2.34137 0.261541 -1.88906e-20)
(-2.38223 0.245066 0)