/*--------------------------------*- C++ -*----------------------------------*\
  =========                 |
  \\      /  F ield         | OpenFOAM: The Open Source CFD Toolbox
   \\    /   O peration     | Website:  https://openfoam.org
    \\  /    A nd           | Version:  9
     \\/     M anipulation  |
\*---------------------------------------------------------------------------*/
FoamFile
{
    format      ascii;
    class       volScalarField;
    location    "0.04";
    object      epsilon;
}
// * * * * * * * * * * * * * * * * * * * * * * * * * * * * * * * * * * * * * //

dimensions      [0 2 -3 0 0 0 0];

internalField   nonuniform List<scalar> 
12225
(
209.524
126.073
81.4991
58.0835
45.4092
37.9651
33.0301
29.3451
26.3583
23.829
21.6447
19.7481
18.1116
16.7393
15.7311
16.2399
26.1004
121.427
61.509
54.8105
42.0573
33.1995
27.4632
23.5996
20.8522
18.7686
17.0855
15.6523
14.3784
13.2073
12.1028
11.0415
10.0297
9.74665
16.2647
78.8533
31.4993
33.1658
28.7621
24.2933
20.7829
18.1489
16.1647
14.631
13.405
12.391
11.5236
10.7544
10.0451
9.36734
8.76791
9.11023
16.9657
71.3187
21.8647
23.8506
22.1591
19.6656
17.3424
15.4099
13.8578
12.6161
11.6139
10.7949
10.1159
9.54242
9.046
8.61364
8.35562
9.31621
18.15
66.6816
17.8359
19.0909
18.3063
16.7802
15.1626
13.697
12.4485
11.4113
10.5578
9.85917
9.29037
8.8305
8.46429
8.2006
8.20599
9.60122
18.5422
60.8008
15.8928
16.4167
15.8865
14.8353
13.6417
12.4943
11.4703
10.5902
9.85047
9.24001
8.74714
8.36237
8.08307
7.93891
8.1343
9.76666
18.1458
53.5596
14.8849
14.8354
14.3106
13.4788
12.5343
11.6005
10.7415
9.98386
9.33507
8.79442
8.35919
8.02845
7.80986
7.74909
8.06732
9.76629
17.175
45.6853
14.3441
13.8775
13.2688
12.5214
11.7156
10.9203
10.1791
9.5152
8.93901
8.45481
8.06522
7.77504
7.59926
7.59327
7.97632
9.61316
15.8689
37.9658
14.0501
13.294
12.5795
11.8468
11.1106
10.4003
9.73998
9.14543
8.62579
8.18675
7.83345
7.57395
7.4275
7.45323
7.85441
9.34386
14.4321
30.9831
13.8901
12.9409
12.1282
11.3769
10.6685
10.0062
9.39842
8.853
8.37582
7.97187
7.64683
7.41004
7.28232
7.32147
7.70609
9.00123
13.0143
25.05
13.8036
12.7304
11.838
11.0561
10.3518
9.71295
9.13687
8.62439
8.17769
7.79995
7.49612
7.27535
7.15787
7.19656
7.54137
8.62539
11.711
20.2533
13.761
12.6176
11.6712
10.8606
10.1494
9.51826
8.95789
8.46434
8.03663
7.67597
7.386
7.17475
7.06055
7.08968
7.38556
8.2799
10.6663
16.8354
13.7367
12.5487
11.563
10.7271
10.0052
9.37466
8.82215
8.34026
7.9254
7.57682
7.2966
7.09111
6.97593
6.98959
7.22945
7.93961
9.72568
14.0282
13.7221
12.5049
11.49
10.6323
9.8981
9.26409
8.71467
8.23995
7.83413
7.49451
7.22134
7.01887
6.89904
6.89144
7.06755
7.59492
8.85599
11.6883
13.7144
12.4804
11.4468
10.5731
9.82824
9.18935
8.64004
8.16903
7.76888
7.43519
7.16633
6.96413
6.83639
6.80348
6.91331
7.27168
8.10175
9.85145
13.7108
12.4687
11.4252
10.5423
9.79065
9.14815
8.59842
8.12952
7.73298
7.40304
7.13634
6.93229
6.79455
6.73499
6.78194
6.9956
7.49459
8.49792
13.7093
12.464
11.4169
10.5307
9.77679
9.13371
8.58513
8.11878
7.72548
7.39846
7.13289
6.92602
6.77791
6.69345
6.6864
6.7863
7.049
7.57093
13.7085
12.4624
11.4153
10.5298
9.77775
9.13748
8.59257
8.13041
7.74123
7.41741
7.15298
6.94349
6.78624
6.68116
6.63244
6.6512
6.75909
6.99262
13.7077
12.4621
11.4171
10.5353
9.78809
9.1534
8.61433
8.15775
7.77335
7.45284
7.18944
6.97758
6.81287
6.69229
6.61471
6.58168
6.59842
6.67497
13.7078
12.465
11.4252
10.5501
9.80995
9.18178
8.64804
8.19524
7.81284
7.49241
7.22702
7.01087
6.83908
6.7077
6.61377
6.5556
6.53297
6.54748
13.7113
12.4778
11.4502
10.5873
9.85702
9.2355
8.70496
8.25217
7.86706
7.54173
7.2697
7.04548
6.86432
6.72209
6.6153
6.54111
6.49736
6.48269
13.7249
12.5201
11.5225
10.6834
9.96782
9.35184
8.81933
8.35904
7.96274
7.624
7.33745
7.09835
6.90238
6.74559
6.62432
6.53529
6.47555
6.44258
13.7679
12.6385
11.705
10.9051
10.2041
9.58408
9.03541
8.55205
8.12957
7.76403
7.45159
7.18835
6.97038
6.79375
6.65463
6.54932
6.47436
6.42658
13.8895
12.9339
12.1141
11.3593
10.6538
10.0005
9.40493
8.87064
8.39866
7.9878
7.6353
7.33747
7.09007
6.8886
6.72855
6.60552
6.51535
6.45425
14.2099
13.6044
12.9435
12.2037
11.4343
10.6837
9.98638
9.35831
8.80526
8.32688
7.91942
7.57752
7.29511
7.06602
6.88419
6.74392
6.63997
6.56771
15.0186
15.0391
14.5184
13.6682
12.7006
11.743
10.8582
10.0776
9.40558
8.83663
8.36141
7.96945
7.65048
7.39494
7.19418
7.04048
6.92705
6.8481
17.0527
18.0597
17.4394
16.1465
14.7095
13.3559
12.1675
11.1594
10.3264
9.6459
9.09483
8.65252
8.30123
8.02602
7.81441
7.65593
7.54188
7.46488
22.5521
24.6977
23.0092
20.4617
18.0302
15.9663
14.2949
12.9662
11.9224
11.1103
10.4805
9.99477
9.62355
9.34409
9.13868
8.99338
8.89714
8.84056
40.794
41.1935
34.9327
29.0659
24.5216
21.1298
18.6325
16.7946
15.4396
14.4548
13.74
13.2254
12.8617
12.614
12.4567
12.3707
12.3418
12.3576
135.849
96.9503
71.564
54.9731
44.1029
36.9424
32.173
28.941
26.7531
25.3016
24.3437
23.7343
23.38
23.2169
23.199
23.2922
23.4701
23.7097
43.9185
56.6978
66.1555
71.5247
73.863
73.9612
72.3626
69.4359
65.5334
61.6693
58.6908
56.639
55.9247
57.1712
60.9754
67.5801
76.595
86.8382
96.7151
105.176
111.778
116.667
121.027
129.262
142.392
160.038
182.466
209.577
240.885
275.656
313.066
352.306
392.654
433.502
474.362
514.859
554.715
593.735
631.788
668.796
704.724
739.571
773.371
806.186
838.117
869.311
899.974
930.392
960.963
991.862
1021.47
1049.81
1076.88
1102.58
1126.78
1149.26
1169.82
1188.21
1204.17
1217.43
1227.71
1234.74
1238.25
1237.97
1233.69
1225.2
1212.35
1195.02
1173.16
1146.81
1116.03
1081.01
1041.98
999.29
953.399
904.998
855.423
807.645
770.23
733.559
696.031
657.391
617.777
577.464
536.776
496.042
455.582
415.689
376.611
338.527
301.507
266.084
233.914
204.236
176.811
151.63
128.783
108.376
90.5129
75.2399
63.1043
54.0669
50.5879
50.1163
11.4067
11.4261
10.9138
10.1297
9.24775
8.39142
7.63778
7.02128
6.54362
6.18731
5.92777
5.74118
5.60795
5.51337
5.44688
5.40105
5.37057
5.35146
5.3406
5.33541
5.33389
5.33465
5.33685
5.34006
5.34404
5.34868
5.35387
5.35957
5.36569
5.37203
5.37823
5.38397
5.38951
5.39437
5.39824
5.40134
5.40396
5.40637
5.40882
5.41148
5.41433
5.41709
5.41934
5.42076
5.42128
5.42116
5.42077
5.42038
5.42021
5.42046
5.42133
5.42291
5.42496
5.42698
5.42842
5.42902
5.42904
5.4289
5.42886
5.42906
5.42963
5.43079
5.43273
5.43532
5.43808
5.44052
5.44303
5.44478
5.44587
5.44659
5.44731
5.44939
5.45623
5.47124
5.49309
5.51009
78.1534
62.8689
56.3608
52.1275
48.9956
46.6721
45.0519
44.1192
44.0022
45.2087
47.9719
52.6084
59.7622
70.169
84.4193
102.815
125.581
152.643
180.278
208.351
236.006
261.995
285.014
304.021
318.357
328.122
334.016
337
338.029
337.911
337.261
336.514
335.956
335.757
336.007
336.74
337.955
339.632
341.743
344.26
347.166
350.453
354.138
358.256
362.875
368.097
374.071
381.001
389.145
398.812
408.74
418.754
428.784
438.755
448.584
458.176
467.426
476.222
484.439
491.948
498.611
504.288
508.835
512.112
513.982
514.319
513.007
509.949
505.069
498.313
489.66
479.116
466.724
452.561
436.747
419.438
400.802
380.817
361.305
342.404
323.488
304.434
285.298
266.197
247.269
228.651
210.474
192.849
175.871
159.612
144.147
129.653
116.808
104.986
93.9613
83.6305
73.9605
64.9502
56.6132
48.9822
42.1373
36.108
30.6107
25.7389
20.4479
15.8146
12.665
10.4625
8.8402
7.60035
6.64014
5.90076
5.34008
4.92185
4.61375
4.38819
4.22316
4.10206
4.01287
3.94705
3.89859
3.86314
3.83743
3.81896
3.80575
3.79629
3.78951
3.78468
3.78129
3.77902
3.77762
3.77692
3.77681
3.77715
3.77781
3.77859
3.77957
3.78039
3.78077
3.7807
3.78028
3.77962
3.77885
3.77807
3.77733
3.7766
3.77575
3.77463
3.77313
3.77128
3.76919
3.76696
3.76469
3.76249
3.76048
3.75877
3.75735
3.75611
3.75485
3.7534
3.75174
3.75001
3.7483
3.74671
3.74533
3.74431
3.74383
3.74397
3.74476
3.74615
3.74853
3.7515
3.75515
3.75976
3.7657
3.77354
3.78409
3.79762
3.81246
3.84195
103.511
75.1245
64.4799
58.6646
55.042
52.9189
52.1839
53.0304
56.0164
61.2969
69.5542
81.9165
98.961
120.386
145.678
173.584
202.369
230.027
254.492
274.448
289.09
298.145
301.903
301.144
296.971
290.615
283.22
275.695
268.67
262.515
257.401
253.359
250.333
248.219
246.901
246.263
246.211
246.676
247.616
249.014
250.877
253.224
256.087
259.501
263.503
268.126
273.397
279.336
285.982
293.139
300.659
308.477
316.539
324.787
333.153
341.557
349.913
358.12
366.073
373.655
380.742
387.204
392.906
397.714
401.493
404.11
405.445
405.385
403.838
400.727
396.001
389.635
381.632
372.023
360.868
348.239
334.189
318.669
302.098
285.73
269.333
252.892
236.482
220.215
204.216
188.603
173.485
158.955
145.086
131.937
119.553
107.992
97.371
87.654
78.7072
70.4359
62.7728
55.6732
49.1091
43.0638
37.5367
32.5216
27.9138
23.68
19.7986
16.2641
13.3235
10.988
9.16654
7.75529
6.66706
5.83418
5.2035
4.7315
4.38187
4.12471
3.93624
3.79819
3.697
3.62283
3.5686
3.5292
3.50087
3.48077
3.46673
3.45708
3.45056
3.44628
3.44359
3.44205
3.44132
3.4412
3.44152
3.44219
3.44308
3.44406
3.44505
3.44584
3.44623
3.4462
3.44579
3.44505
3.44407
3.44294
3.44175
3.44056
3.43933
3.43798
3.43641
3.43459
3.43252
3.43026
3.42786
3.4254
3.42298
3.42071
3.41867
3.41689
3.41527
3.41368
3.41208
3.41046
3.40889
3.40743
3.40616
3.40522
3.40479
3.40505
3.40618
3.40829
3.41155
3.41592
3.42152
3.42859
3.43733
3.44781
3.45986
3.47294
3.48566
3.505
127.337
89.5959
77.6266
71.8746
68.842
67.8895
69.2027
73.3494
80.2382
90.2644
104.04
121.915
143.631
168.161
193.824
218.508
240.093
256.886
267.937
273.183
273.272
269.297
262.539
254.249
245.496
237.093
229.565
223.182
218.017
214.012
211.035
208.93
207.538
206.721
206.367
206.395
206.756
207.428
208.414
209.734
211.419
213.506
216.032
219.032
222.534
226.558
231.111
236.193
241.797
247.852
254.313
261.143
268.302
275.741
283.403
291.219
299.114
306.999
314.78
322.349
329.593
336.39
342.612
348.127
352.803
356.506
359.109
360.494
360.554
359.2
356.362
351.994
346.077
338.617
329.641
319.191
307.3
293.956
279.162
264.292
249.299
234.228
219.176
204.259
189.596
175.301
161.473
148.197
135.54
123.55
112.263
101.704
91.8989
82.8609
74.5229
66.8236
59.7098
53.1388
47.076
41.4918
36.3623
31.667
27.3703
23.4469
19.887
16.692
13.9216
11.5972
9.69879
8.18077
6.98676
6.06052
5.35105
4.81388
4.4112
4.11165
3.88993
3.72626
3.60561
3.51677
3.45154
3.40389
3.3694
3.34475
3.32741
3.31545
3.30742
3.30221
3.29902
3.29728
3.29657
3.29658
3.29713
3.29806
3.29925
3.30056
3.30184
3.3029
3.30361
3.30393
3.30386
3.30343
3.30271
3.30179
3.30076
3.2997
3.29862
3.29747
3.29617
3.29464
3.29288
3.29089
3.28872
3.28642
3.2841
3.28186
3.27982
3.27804
3.27649
3.27508
3.27371
3.27237
3.27109
3.26992
3.26895
3.26829
3.26813
3.26869
3.27021
3.27281
3.27663
3.2817
3.28816
3.29614
3.30569
3.31655
3.32813
3.33974
3.3501
3.36254
149.984
107.946
96.418
91.4891
89.6026
90.3249
94.0087
100.263
109.371
121.721
137.324
155.712
175.845
196.168
214.843
230.12
240.729
246.148
246.658
243.165
236.9
229.112
220.874
212.978
205.93
199.985
195.205
191.524
188.803
186.875
185.57
184.738
184.255
184.025
183.988
184.113
184.395
184.852
185.517
186.433
187.646
189.201
191.14
193.497
196.298
199.56
203.289
207.483
212.137
217.231
222.745
228.655
234.929
241.529
248.406
255.505
262.761
270.101
277.44
284.688
291.741
298.492
304.823
310.611
315.728
320.046
323.435
325.774
326.947
326.854
325.411
322.554
318.245
312.469
305.234
296.564
286.483
274.997
262.043
248.761
235.268
221.629
207.952
194.352
180.943
167.833
155.115
142.865
131.145
119.999
109.459
99.5411
90.2559
81.6083
73.5723
66.1124
59.1947
52.7887
46.868
41.4075
36.3846
31.7812
27.5796
23.7638
20.3203
17.2437
14.5434
12.2245
10.2798
8.6858
7.40523
6.39372
5.60608
5.00007
4.53833
4.18915
3.92647
3.72951
3.58209
3.4719
3.3897
3.32858
3.28339
3.25026
3.22623
3.20905
3.19696
3.18866
3.18315
3.17968
3.17771
3.17683
3.17677
3.17732
3.1783
3.17955
3.18089
3.18209
3.18306
3.18373
3.18405
3.18406
3.18378
3.1833
3.18269
3.18203
3.18136
3.18063
3.17978
3.17874
3.17747
3.17597
3.17427
3.17242
3.17051
3.16866
3.16696
3.16551
3.16428
3.16322
3.16224
3.16131
3.16044
3.15966
3.15907
3.15878
3.15897
3.15986
3.16165
3.16451
3.16853
3.17377
3.18029
3.18817
3.19729
3.20728
3.21739
3.22701
3.23514
3.24375
167.265
129.669
120.04
116.091
115.179
117.083
121.019
127.358
136.378
147.987
161.67
176.485
191.147
204.221
214.399
220.783
223.082
221.641
217.285
211.072
204.037
197.017
190.589
185.071
180.582
177.096
174.502
172.646
171.364
170.501
169.92
169.513
169.204
168.945
168.717
168.526
168.397
168.369
168.492
168.816
169.391
170.266
171.48
173.068
175.055
177.458
180.289
183.547
187.23
191.339
195.865
200.791
206.095
211.745
217.707
223.935
230.38
236.98
243.671
250.374
257.007
263.474
269.674
275.496
280.822
285.53
289.494
292.589
294.693
295.696
295.497
294.017
291.195
286.996
281.407
274.438
266.104
256.417
245.338
233.753
221.874
209.78
197.58
185.39
173.32
161.467
149.917
138.737
127.982
117.689
107.885
98.5849
89.7945
81.5145
73.7385
66.4544
59.6483
53.3066
47.4167
41.9661
36.9427
32.3363
28.1377
24.3359
20.9176
17.8702
15.1847
12.8547
10.8713
9.2173
7.86468
6.77751
5.91634
5.24222
4.71943
4.31681
4.00823
3.77246
3.59264
3.45566
3.35145
3.27233
3.21247
3.1674
3.1337
3.10872
3.09038
3.07711
3.06766
3.06111
3.05675
3.05403
3.05257
3.05208
3.0523
3.05302
3.05404
3.05513
3.05615
3.057
3.05762
3.058
3.05815
3.05812
3.05798
3.05779
3.05758
3.05732
3.05697
3.05645
3.05573
3.05478
3.05364
3.05235
3.051
3.04966
3.04846
3.04746
3.04667
3.04603
3.04548
3.04499
3.04454
3.04418
3.04399
3.04407
3.04458
3.04571
3.04766
3.05056
3.05449
3.0595
3.06559
3.07276
3.08082
3.08935
3.09768
3.10531
3.11157
3.1181
171.457
156.008
147.692
143.429
142.109
142.683
145.415
150.364
157.392
166.077
175.679
185.204
193.566
199.796
203.247
203.728
201.518
197.257
191.759
185.816
180.063
174.924
170.614
167.186
164.586
162.693
161.359
160.433
159.772
159.256
158.79
158.308
157.77
157.165
156.501
155.806
155.121
154.496
153.984
153.639
153.512
153.649
154.09
154.869
156.012
157.539
159.463
161.789
164.515
167.65
171.189
175.122
179.432
184.097
189.092
194.384
199.936
205.704
211.638
217.68
223.764
229.814
235.746
241.464
246.864
251.832
256.248
259.986
262.921
264.927
265.892
265.713
264.308
261.619
257.61
252.272
245.611
237.64
228.341
218.438
208.159
197.599
186.876
176.106
165.396
154.836
144.5
134.447
124.719
115.345
106.343
97.7224
89.4865
81.6332
74.1636
67.0855
60.4044
54.125
48.2514
42.7867
37.7325
33.0896
28.8568
25.0284
21.5926
18.5335
15.8347
13.4819
11.4616
9.75681
8.34315
7.18966
6.26137
5.52262
4.93974
4.48273
4.12594
3.84816
3.63227
3.46469
3.33477
3.23422
3.1566
3.09689
3.05119
3.01641
2.99014
2.97045
2.95586
2.94521
2.93758
2.93229
2.92881
2.92672
2.92571
2.9255
2.92583
2.92648
2.92728
2.92807
2.92878
2.92935
2.92976
2.93006
2.93027
2.93045
2.93061
2.93073
2.93078
2.93069
2.93043
2.92998
2.92935
2.92858
2.92774
2.92692
2.92619
2.92562
2.92522
2.92496
2.92479
2.92466
2.92458
2.92457
2.9247
2.92507
2.92581
2.92708
2.92903
2.93178
2.93542
2.93994
2.94532
2.95149
2.95825
2.96521
2.9718
2.97771
2.98252
2.9878
164.14
209.598
182.026
170.036
165.164
163.828
164.768
167.46
171.504
176.381
181.402
185.789
188.827
190.022
189.209
186.565
182.539
177.716
172.681
167.908
163.709
160.239
157.519
155.487
154.024
152.992
152.25
151.667
151.134
150.563
149.893
149.089
148.14
147.055
145.861
144.598
143.315
142.065
140.904
139.885
139.06
138.473
138.165
138.169
138.512
139.216
140.296
141.762
143.613
145.854
148.483
151.491
154.868
158.598
162.663
167.043
171.713
176.643
181.8
187.144
192.628
198.197
203.784
209.313
214.695
219.828
224.6
228.887
232.558
235.48
237.519
238.555
238.478
237.202
234.666
230.839
225.714
219.3
211.594
203.227
194.401
185.236
175.862
166.403
156.967
147.64
138.489
129.559
120.879
112.465
104.321
96.4482
88.8419
81.4954
74.4083
67.6036
61.1034
54.93
49.1047
43.6469
38.5734
33.8972
29.6261
25.7606
22.2923
19.2054
16.4807
14.0994
12.0439
10.2951
8.82949
7.61854
6.63039
5.83214
5.19224
4.6821
4.27693
3.95594
3.70208
3.5016
3.34353
3.21914
3.12153
3.04519
2.98574
2.93967
2.90418
2.87702
2.85639
2.84087
2.82934
2.82093
2.81494
2.81085
2.80824
2.80674
2.80608
2.80599
2.80627
2.80673
2.80726
2.80778
2.80824
2.80864
2.80901
2.80937
2.80972
2.81005
2.81033
2.81051
2.81055
2.81044
2.81017
2.80979
2.80935
2.80891
2.80854
2.80829
2.80818
2.80818
2.80826
2.80838
2.80854
2.80876
2.8091
2.80963
2.81047
2.81175
2.81358
2.81605
2.81925
2.82314
2.82769
2.83279
2.83825
2.84374
2.84883
2.85334
2.85708
2.8615
890.485
313.629
214.545
189.965
181.945
178.94
178.049
178.34
179.33
180.579
181.601
181.921
181.178
179.215
176.113
172.158
167.75
163.305
159.17
155.576
152.633
150.348
148.654
147.439
146.572
145.92
145.361
144.788
144.118
143.292
142.274
141.051
139.628
138.03
136.295
134.468
132.604
130.759
128.987
127.345
125.882
124.642
123.666
122.987
122.633
122.626
122.982
123.716
124.826
126.31
128.161
130.374
132.939
135.847
139.086
142.643
146.505
150.655
155.074
159.74
164.625
169.692
174.895
180.179
185.471
190.685
195.72
200.456
204.761
208.492
211.501
213.641
214.776
214.789
213.587
211.113
207.338
202.268
195.916
188.849
181.234
173.223
164.966
156.605
148.255
140.006
131.92
124.032
116.356
108.891
101.623
94.5388
87.6204
80.8526
74.226
67.7721
61.5256
55.5233
49.8021
44.3973
39.3404
34.6569
30.3648
26.4717
22.9741
19.8588
17.1069
14.6978
12.6108
10.8247
9.31548
8.05568
7.01537
6.16383
5.47141
4.91104
4.459
4.09516
3.80284
3.56841
3.38079
3.23103
3.11186
3.01741
2.94287
2.88434
2.83863
2.80313
2.77574
2.75475
2.73882
2.72684
2.71798
2.71155
2.70703
2.70398
2.70204
2.70095
2.70045
2.70032
2.70041
2.70062
2.70088
2.70116
2.70147
2.70179
2.70213
2.70248
2.70281
2.70307
2.70322
2.70327
2.70319
2.70303
2.70281
2.70259
2.70243
2.70236
2.7024
2.70253
2.70272
2.70296
2.70322
2.70354
2.70395
2.70453
2.70535
2.70651
2.70811
2.71023
2.71291
2.71613
2.71982
2.72389
2.72817
2.73239
2.73626
2.73968
2.74262
2.74635
816.725
311.314
223.34
200.089
191.631
187.662
185.311
183.598
182.084
180.484
178.55
176.087
172.994
169.307
165.193
160.912
156.749
152.949
149.681
147.02
144.963
143.442
142.35
141.562
140.95
140.395
139.793
139.06
138.133
136.974
135.563
133.903
132.013
129.926
127.685
125.344
122.957
120.583
118.279
116.1
114.095
112.31
110.785
109.551
108.636
108.062
107.847
108.002
108.53
109.416
110.649
112.221
114.126
116.355
118.902
121.76
124.924
128.388
132.146
136.189
140.505
145.078
149.882
154.88
160.021
165.236
170.438
175.517
180.342
184.764
188.62
191.741
193.96
195.124
195.108
193.817
191.198
187.239
182.003
175.956
169.266
162.116
154.686
147.142
139.619
132.219
125.007
118.011
111.231
104.647
98.2257
91.9309
85.7281
79.588
73.486
67.4548
61.5357
55.7759
50.225
44.9319
39.9413
35.2911
31.0092
27.1114
23.6004
20.4674
17.6957
15.2649
13.1531
11.3374
9.79309
8.4931
7.4087
6.51079
5.7714
5.16491
4.66876
4.26369
3.93359
3.66516
3.44742
3.27139
3.12962
3.01595
2.92526
2.85329
2.79647
2.75188
2.71707
2.69006
2.66923
2.65329
2.6412
2.63214
2.62544
2.62058
2.61715
2.61483
2.61331
2.61236
2.61178
2.61145
2.61129
2.61123
2.61125
2.61135
2.6115
2.61168
2.61187
2.61204
2.61214
2.61217
2.61212
2.61201
2.61186
2.61171
2.61161
2.61158
2.61163
2.61176
2.61195
2.61217
2.61243
2.61272
2.6131
2.61361
2.61431
2.61528
2.61658
2.6183
2.62044
2.62298
2.62588
2.62902
2.63227
2.63545
2.63834
2.64092
2.64325
2.64637
178.072
246.812
216.628
202.183
195.081
190.798
187.489
184.374
181.128
177.619
173.802
169.685
165.332
160.872
156.478
152.342
148.633
145.47
142.903
140.917
139.446
138.387
137.62
137.021
136.47
135.863
135.112
134.15
132.931
131.429
129.64
127.576
125.263
122.742
120.062
117.278
114.45
111.637
108.898
106.287
103.856
101.648
99.7026
98.0507
96.7185
95.7261
95.0891
94.8189
94.9169
95.357
96.1245
97.2091
98.6028
100.299
102.295
104.587
107.175
110.062
113.25
116.743
120.544
124.651
129.056
133.744
138.683
143.826
149.101
154.412
159.637
164.624
169.199
173.172
176.345
178.529
179.556
179.293
177.653
174.598
170.252
164.959
158.913
152.329
145.421
138.39
131.402
124.582
118.006
111.704
105.665
99.8498
94.2016
88.6595
83.1663
77.6741
72.139
66.5872
61.0604
55.6109
50.297
45.1781
40.3099
35.7412
31.5094
27.6387
24.1387
21.0063
18.2287
15.7872
13.6601
11.8241
10.2539
8.92268
7.80258
6.86576
6.08569
5.4381
4.90161
4.45792
4.09165
3.78998
3.54227
3.33964
3.17463
3.04094
2.93322
2.84692
2.77818
2.72374
2.68085
2.64724
2.62103
2.60071
2.58502
2.573
2.56386
2.55696
2.55182
2.54805
2.54531
2.54332
2.54188
2.54082
2.54003
2.53945
2.53902
2.53872
2.53851
2.53838
2.5383
2.53822
2.53813
2.53801
2.53784
2.53764
2.53742
2.53722
2.53706
2.53695
2.53692
2.53695
2.53704
2.53716
2.5373
2.53749
2.53775
2.53811
2.53863
2.53935
2.54033
2.54163
2.54325
2.54517
2.54734
2.54968
2.55207
2.5544
2.55651
2.55845
2.56028
2.56286
797.009
303.095
223.785
202.735
194.416
189.619
185.721
181.818
177.615
173.077
168.288
163.384
158.525
153.874
149.585
145.785
142.559
139.938
137.902
136.385
135.289
134.5
133.893
133.351
132.765
132.043
131.11
129.912
128.415
126.605
124.484
122.073
119.404
116.524
113.484
110.344
107.165
104.009
100.936
98.0008
95.2542
92.7398
90.4945
88.5483
86.9248
85.6415
84.7114
84.1433
83.9373
84.0593
84.4896
85.2155
86.2282
87.5219
89.0936
90.9434
93.0748
95.4943
98.2115
101.238
104.587
108.27
112.295
116.665
121.368
126.376
131.641
137.083
142.591
148.018
153.184
157.881
161.883
164.963
166.909
167.542
166.735
164.422
160.764
156.003
150.36
144.078
137.412
130.604
123.861
117.343
111.15
105.322
99.841
94.6517
89.6729
84.8159
79.9966
75.1429
70.195
65.1602
60.0756
54.994
49.9777
45.0927
40.4033
35.9666
31.8286
28.0215
24.5623
21.4541
18.6889
16.2512
14.121
12.2754
10.6892
9.33613
8.18903
7.22118
6.40727
5.72429
5.15202
4.67314
4.2731
3.93971
3.66278
3.43373
3.24523
3.09098
2.96552
2.86412
2.78266
2.7176
2.66593
2.62509
2.59296
2.56777
2.54809
2.53276
2.52087
2.51168
2.50459
2.49918
2.49503
2.49182
2.48933
2.48737
2.48581
2.48455
2.48352
2.48269
2.482
2.48144
2.48097
2.48055
2.48016
2.47977
2.47938
2.47899
2.47861
2.47825
2.47794
2.47769
2.47749
2.47736
2.47728
2.47723
2.47721
2.47724
2.47732
2.47749
2.47779
2.47824
2.4789
2.47979
2.48094
2.4823
2.48384
2.4855
2.4872
2.48884
2.49035
2.49177
2.49319
2.49529
821.849
312.003
223.067
199.246
190.149
185.11
181.05
176.931
172.443
167.591
162.526
157.452
152.575
148.072
144.077
140.671
137.886
135.701
134.057
132.863
132.008
131.372
130.837
130.29
129.635
128.788
127.685
126.281
124.552
122.488
120.101
117.415
114.468
111.309
107.993
104.584
101.143
97.7353
94.4206
91.2551
88.2885
85.5636
83.1155
80.9719
79.1536
77.6755
76.5474
75.7755
75.3582
75.2561
75.4459
75.9131
76.6478
77.6438
78.8987
80.4136
82.1936
84.2477
86.5889
89.2341
92.203
95.517
99.1966
103.258
107.71
112.544
117.733
123.218
128.905
134.657
140.293
145.594
150.308
154.171
156.925
158.342
158.249
156.562
153.427
149.028
143.595
137.401
130.738
123.898
117.138
110.664
104.61
99.0346
93.9228
89.2048
84.7754
80.5167
76.3152
72.0724
67.7071
63.2061
58.5963
53.926
49.2572
44.6587
40.1998
35.9436
31.9431
28.2376
24.8511
21.7933
19.0616
16.6448
14.5255
12.6821
11.0906
9.7254
8.56024
7.56946
6.72892
6.01676
5.41387
4.90391
4.47318
4.11023
3.80544
3.55065
3.33881
3.16376
3.02006
2.90288
2.80796
2.73153
2.67035
2.62161
2.58293
2.55234
2.52819
2.50917
2.4942
2.48241
2.47315
2.46587
2.46011
2.45552
2.45183
2.44883
2.44635
2.44429
2.44255
2.44108
2.43983
2.43875
2.43781
2.43697
2.43621
2.43549
2.43481
2.43416
2.43355
2.43298
2.43246
2.432
2.4316
2.43127
2.43098
2.43073
2.43053
2.43036
2.43025
2.43021
2.43027
2.43046
2.43081
2.43134
2.43206
2.43295
2.43396
2.43507
2.4362
2.43731
2.43834
2.43934
2.44042
2.44209
816.668
308.432
217.52
192.748
183.363
178.369
174.487
170.583
166.307
161.659
156.804
151.969
147.378
143.211
139.591
136.576
134.171
132.331
130.977
130.008
129.31
128.765
128.261
127.692
126.97
126.018
124.782
123.223
121.32
119.071
116.49
113.606
110.46
107.103
103.593
99.9948
96.3728
92.7918
89.3131
85.9926
82.8796
80.0156
77.4337
75.1596
73.2114
71.6015
70.3373
69.4228
68.8547
68.5916
68.608
68.8877
69.4201
70.1987
71.221
72.4883
74.0058
75.7835
77.8356
80.1812
82.8439
85.8508
89.231
93.0127
97.2187
101.861
106.931
112.395
118.176
124.153
130.151
135.945
141.264
145.806
149.27
151.375
151.896
150.745
148.009
143.842
138.475
132.201
125.353
118.272
111.274
104.619
98.4853
92.9599
88.0377
83.6395
79.6371
75.8824
72.2307
68.5557
64.7525
60.7849
56.666
52.4356
48.1515
43.8818
39.6973
35.6648
31.8423
28.2747
24.9926
22.0118
19.3359
16.9581
14.8646
13.0361
11.4504
10.083
8.9088
7.90333
7.04356
6.30876
5.68083
5.14441
4.68666
4.2969
3.96616
3.68681
3.45221
3.25646
3.09426
2.96081
2.85177
2.76326
2.69183
2.63447
2.5886
2.55201
2.52289
2.49972
2.48128
2.46659
2.45487
2.44549
2.43793
2.43179
2.42676
2.42258
2.41908
2.41611
2.41358
2.4114
2.40951
2.40786
2.4064
2.4051
2.40392
2.40283
2.40182
2.40087
2.39999
2.39917
2.39841
2.39773
2.39711
2.39656
2.39606
2.39561
2.3952
2.39484
2.39453
2.39429
2.39413
2.39408
2.39416
2.39438
2.39474
2.39523
2.39582
2.39648
2.39718
2.39786
2.39852
2.3992
2.4
2.40128
794.093
299.232
209.141
184.327
175.023
170.31
166.853
163.456
159.72
155.613
151.279
146.938
142.812
139.08
135.863
133.215
131.131
129.561
128.423
127.614
127.024
126.539
126.054
125.469
124.702
123.683
122.363
120.705
118.695
116.332
113.632
110.627
107.358
103.879
100.25
96.5344
92.7995
89.1102
85.5282
82.1094
78.9023
75.9471
73.2757
70.9117
68.8714
67.1655
65.7999
64.7772
64.093
63.7068
63.5922
63.7319
64.1147
64.7339
65.5865
66.6737
68.0002
69.5754
71.4134
73.5334
75.9602
78.7238
81.8582
85.3996
89.3828
93.8351
98.7684
104.169
109.984
116.108
122.377
128.566
134.392
139.515
143.6
146.304
147.355
146.659
144.234
140.202
134.789
128.308
121.128
113.643
106.229
99.2076
92.8107
87.1616
82.2714
78.0561
74.3664
71.0237
67.8513
64.6936
61.4209
57.9733
54.3475
50.5716
46.6965
42.7863
38.9106
35.1374
31.5275
28.1303
24.9816
22.1034
19.5048
17.1842
15.1316
13.331
11.7621
10.4024
9.22815
8.21615
7.34457
6.59376
5.94662
5.38873
4.90808
4.49476
4.1405
3.83827
3.58192
3.36593
3.18527
3.03526
2.91162
2.81039
2.72803
2.66136
2.60762
2.56442
2.52976
2.50196
2.47964
2.46169
2.44722
2.43549
2.42593
2.41807
2.41155
2.40608
2.40146
2.39752
2.39412
2.39118
2.38861
2.38635
2.38435
2.38255
2.38094
2.37946
2.3781
2.37684
2.37568
2.3746
2.3736
2.37269
2.37186
2.37109
2.37039
2.36974
2.36915
2.36861
2.36812
2.3677
2.36735
2.36709
2.36694
2.3669
2.36698
2.36716
2.36742
2.36774
2.3681
2.36847
2.36885
2.36928
2.36984
2.3708
821.595
291.524
198.859
174.293
165.473
161.307
158.485
155.804
152.83
149.485
145.877
142.198
138.653
135.421
132.624
130.322
128.517
127.166
126.193
125.504
124.994
124.556
124.091
123.507
122.725
121.681
120.327
118.631
116.578
114.17
111.423
108.368
105.048
101.516
97.8321
94.0612
90.2699
86.5236
82.8839
79.4064
76.1392
73.1218
70.3849
67.9508
65.835
64.0475
62.5943
61.4796
60.7008
60.2166
59.9998
60.0328
60.3039
60.8064
61.5371
62.4966
63.689
65.1223
66.8092
68.7678
71.0224
73.6032
76.5468
79.8944
83.6892
87.9709
92.7682
98.0875
103.899
110.117
116.586
123.09
129.342
134.957
139.584
142.784
144.314
144.007
141.821
137.844
132.294
125.501
117.871
109.85
101.877
94.3377
87.5248
81.6048
76.6109
72.4578
68.9766
65.9581
63.1933
60.4992
57.7271
54.7885
51.6586
48.3509
44.9064
41.3831
37.8472
34.3659
31.0009
27.8047
24.8177
22.0671
19.5675
17.3224
15.3263
13.5666
12.0259
10.6837
9.51812
8.50745
7.63114
6.87066
6.20992
5.63538
5.13587
4.70223
4.32692
4.00355
3.72654
3.49084
3.29177
3.12492
2.98612
2.87147
2.77739
2.7006
2.63821
2.58767
2.54682
2.5138
2.4871
2.46547
2.44789
2.43354
2.42174
2.41197
2.40381
2.39694
2.39111
2.38611
2.38179
2.37804
2.37477
2.37188
2.36932
2.36703
2.36498
2.36311
2.36141
2.35985
2.35841
2.35709
2.35587
2.35475
2.35372
2.35277
2.35189
2.35108
2.35033
2.34964
2.34901
2.34844
2.34794
2.34753
2.34721
2.34698
2.34685
2.3468
2.34682
2.3469
2.34703
2.34718
2.34737
2.34762
2.34801
2.34872
180.219
206.916
176.834
162.52
156.107
152.917
150.839
148.909
146.718
144.158
141.295
138.286
135.317
132.558
130.135
128.12
126.528
125.332
124.469
123.855
123.394
122.989
122.546
121.978
121.21
120.18
118.841
117.163
115.129
112.741
110.015
106.979
103.676
100.156
96.4791
92.7092
88.912
85.1526
81.4923
77.9865
74.683
71.621
68.8306
66.334
64.146
62.2766
60.7326
59.5202
58.6402
58.0545
57.7367
57.6694
57.8412
58.2452
58.8781
59.7396
60.8326
62.1632
63.7421
65.5853
67.7152
70.1609
72.959
76.1536
79.7936
83.928
88.599
93.8314
99.6183
105.893
112.507
119.257
125.871
131.886
136.931
140.601
142.563
142.584
140.565
136.565
130.794
123.596
115.413
106.746
98.0991
89.9279
82.588
76.2948
71.1074
66.9406
63.605
60.8586
58.4574
56.1903
53.893
51.4437
48.7945
45.9444
42.9251
39.7886
36.5972
33.4163
30.3079
27.3263
24.5155
21.9069
19.5202
17.3635
15.4356
13.7274
12.2245
10.9087
9.76016
8.7587
7.88511
7.12196
6.45414
5.86891
5.35586
4.90655
4.51409
4.17273
3.87749
3.62383
3.40751
3.22446
3.07075
2.94262
2.83654
2.74923
2.67771
2.61934
2.5718
2.53313
2.50166
2.476
2.45504
2.43782
2.4236
2.41178
2.40187
2.39351
2.38639
2.3803
2.37504
2.37046
2.36647
2.36295
2.35984
2.35707
2.35459
2.35236
2.35033
2.34848
2.34679
2.34524
2.34381
2.3425
2.3413
2.34019
2.33917
2.33822
2.33734
2.33653
2.33578
2.3351
2.33449
2.33396
2.33351
2.33314
2.33286
2.33264
2.3325
2.33241
2.33237
2.33237
2.33242
2.33255
2.3328
2.33332
172.763
179.076
162.678
152.949
148.146
145.774
144.357
143.097
141.607
139.754
137.568
135.169
132.721
130.381
128.28
126.499
125.07
123.981
123.185
122.612
122.178
121.793
121.369
120.823
120.085
119.092
117.8
116.175
114.202
111.879
109.219
106.25
103.01
99.5493
95.9238
92.1962
88.431
84.6923
81.0409
77.5321
74.2139
71.1255
68.2978
65.7531
63.5069
61.5693
59.9478
58.6494
57.6775
56.9999
56.5931
56.4411
56.5328
56.8616
57.4237
58.218
59.2458
60.5116
62.0236
63.7957
65.8485
68.2084
70.9115
74.0031
77.5354
81.5636
86.1394
91.3004
97.062
103.374
110.084
116.999
123.823
130.16
135.578
139.634
141.935
142.191
140.259
136.167
130.118
122.468
113.697
104.353
95.0036
86.169
78.2661
71.5577
66.1285
61.8949
58.6476
56.1132
54.014
52.11
50.2208
48.1986
45.9761
43.539
40.9097
38.1334
35.2681
32.376
29.5182
26.7499
24.1171
21.6547
19.3862
17.324
15.4704
13.8198
12.3607
11.0773
9.95166
8.96519
8.10001