/*--------------------------------*- C++ -*----------------------------------*\
  =========                 |
  \\      /  F ield         | OpenFOAM: The Open Source CFD Toolbox
   \\    /   O peration     | Website:  https://openfoam.org
    \\  /    A nd           | Version:  9
     \\/     M anipulation  |
\*---------------------------------------------------------------------------*/
FoamFile
{
    format      ascii;
    class       volScalarField;
    location    "0.04";
    object      k;
}
// * * * * * * * * * * * * * * * * * * * * * * * * * * * * * * * * * * * * * //

dimensions      [0 2 -2 0 0 0 0];

internalField   nonuniform List<scalar> 
12225
(
0.266251
0.160207
0.103564
0.0738059
0.0576972
0.048237
0.0419673
0.0372868
0.0334926
0.0302767
0.0274944
0.0250722
0.0229758
0.0212142
0.0199239
0.0206746
0.033627
0.157098
0.334164
0.249246
0.195867
0.163971
0.143626
0.129387
0.118488
0.10954
0.10184
0.0950198
0.0888633
0.083243
0.0781007
0.0734726
0.0696866
0.0695012
0.0920772
0.255827
0.345022
0.285344
0.238961
0.206011
0.182419
0.164896
0.151242
0.140103
0.130695
0.122567
0.115452
0.10918
0.103647
0.0988513
0.0953003
0.0974243
0.129411
0.308444
0.350014
0.304599
0.264918
0.233493
0.209095
0.189988
0.174674
0.162061
0.151434
0.142345
0.134522
0.127798
0.122082
0.117425
0.114626
0.119109
0.157914
0.335359
0.353114
0.316333
0.282103
0.253057
0.22916
0.209605
0.193469
0.179966
0.168518
0.158738
0.150386
0.143328
0.13752
0.133115
0.131189
0.137534
0.178143
0.343585
0.355183
0.324043
0.294121
0.267563
0.244772
0.225457
0.209097
0.195166
0.183237
0.17301
0.164298
0.157011
0.15117
0.14704
0.145881
0.153316
0.192315
0.338783
0.356617
0.329351
0.302813
0.278568
0.257122
0.238441
0.222262
0.208255
0.196131
0.185675
0.176758
0.169345
0.163515
0.159625
0.159006
0.16675
0.201992
0.325916
0.35763
0.333106
0.309223
0.287026
0.266968
0.249128
0.233392
0.219572
0.207481
0.196983
0.188006
0.18056
0.174775
0.171064
0.170726
0.178132
0.2085
0.309188
0.358351
0.335798
0.313994
0.293562
0.274836
0.257925
0.242794
0.229342
0.217464
0.207083
0.198172
0.190779
0.185069
0.181469
0.181176
0.187787
0.212947
0.291847
0.358862
0.337733
0.317551
0.298609
0.28111
0.265141
0.250701
0.237743
0.226212
0.216075
0.20734
0.200078
0.194469
0.190928
0.190499
0.196049
0.216198
0.276079
0.359221
0.339118
0.32019
0.302485
0.286082
0.271023
0.257309
0.244921
0.233833
0.22404
0.215572
0.208512
0.203036
0.199522
0.198845
0.203227
0.218876
0.263092
0.359451
0.340019
0.321967
0.305188
0.289661
0.275378
0.262329
0.250499
0.239877
0.230469
0.222314
0.215495
0.210174
0.206678
0.205729
0.209051
0.221163
0.254079
0.359617
0.340678
0.32331
0.307296
0.292533
0.278968
0.266567
0.255313
0.245196
0.23623
0.228452
0.221936
0.216824
0.213385
0.21219
0.214536
0.2236
0.24733
0.359747
0.341202
0.324411
0.309084
0.295049
0.282205
0.270492
0.259876
0.250346
0.241909
0.234594
0.228462
0.22362
0.220271
0.218834
0.220224
0.226529
0.242625
0.359842
0.341588
0.325249
0.3105
0.297118
0.284961
0.273939
0.263999
0.255115
0.247282
0.240515
0.234847
0.230348
0.227148
0.225525
0.226065
0.23004
0.240205
0.359903
0.341847
0.325837
0.311535
0.298697
0.28715
0.27678
0.26751
0.259296
0.252113
0.245951
0.240817
0.236733
0.233763
0.232055
0.231939
0.23411
0.239987
0.359938
0.342002
0.326208
0.312226
0.299804
0.288755
0.278948
0.270287
0.262708
0.256164
0.250618
0.246044
0.242424
0.239759
0.238094
0.237571
0.238507
0.241545
0.359949
0.342074
0.326408
0.31263
0.300493
0.289806
0.280429
0.272254
0.265201
0.259203
0.2542
0.250136
0.246961
0.244627
0.243108
0.242419
0.242651
0.244027
0.359936
0.342069
0.326449
0.312763
0.300766
0.29027
0.281132
0.273241
0.266506
0.26085
0.256199
0.252479
0.249618
0.247541
0.246181
0.245483
0.245418
0.246003
0.359894
0.341953
0.326244
0.312457
0.300352
0.289751
0.28052
0.272553
0.265766
0.260081
0.255422
0.251714
0.248876
0.246827
0.245487
0.244776
0.244625
0.244977
0.359822
0.3417
0.32573
0.311619
0.299152
0.288177
0.278579
0.27027
0.263172
0.257213
0.25232
0.248416
0.24542
0.243247
0.24181
0.241023
0.240799
0.241055
0.359682
0.341167
0.324637
0.30986
0.296691
0.285025
0.274783
0.26589
0.258277
0.251873
0.246602
0.242381
0.239124
0.236742
0.235142
0.234231
0.233912
0.234089
0.359419
0.34014
0.322581
0.306677
0.292405
0.279733
0.268606
0.258959
0.250713
0.243785
0.238084
0.233516
0.229982
0.227381
0.22561
0.22457
0.224155
0.224258
0.358948
0.338299
0.319043
0.301444
0.285657
0.27171
0.259551
0.249086
0.240204
0.232787
0.226714
0.221865
0.218121
0.215362
0.213475
0.212348
0.211869
0.21192
0.358151
0.335192
0.313343
0.293391
0.275697
0.260324
0.247127
0.235933
0.226555
0.218812
0.212536
0.207567
0.203758
0.200969
0.19907
0.197939
0.197456
0.197499
0.356864
0.330118
0.304485
0.281504
0.26163
0.244804
0.230777
0.219137
0.20957
0.201802
0.195598
0.190753
0.187087
0.184439
0.182667
0.181639
0.181232
0.181322
0.354838
0.321807
0.290772
0.264132
0.242096
0.224174
0.209726
0.19817
0.188904
0.181541
0.175774
0.171355
0.168077
0.165766
0.164271
0.16346
0.163214
0.16341
0.351653
0.307565
0.268901
0.238304
0.214702
0.196587
0.182644
0.1719
0.163604
0.157182
0.152277
0.148617
0.145987
0.144212
0.143146
0.142665
0.142663
0.143028
0.344664
0.279688
0.231326
0.19773
0.174281
0.15762
0.145533
0.136619
0.130038
0.125138
0.121554
0.119012
0.117308
0.116284
0.115811
0.115789
0.11613
0.116751
0.29993
0.214051
0.158007
0.12138
0.0973798
0.0815644
0.0710202
0.0638619
0.0589966
0.0557497
0.0535883
0.0521954
0.0513687
0.0509695
0.050898
0.0510796
0.051456
0.0519758
0.149451
0.181966
0.20211
0.213166
0.217988
0.218366
0.215404
0.209782
0.202084
0.194114
0.187936
0.183667
0.182204
0.184876
0.192847
0.206352
0.224236
0.244024
0.262624
0.278243
0.290244
0.29892
0.306093
0.318695
0.339473
0.366742
0.400248
0.439121
0.482031
0.527529
0.574302
0.621282
0.667667
0.712894
0.756596
0.798555
0.838663
0.876891
0.913262
0.947838
0.980706
1.01197
1.04175
1.07017
1.0974
1.12362
1.14906
1.17399
1.19877
1.22336
1.24663
1.26865
1.28944
1.30897
1.32715
1.34388
1.35901
1.37241
1.3839
1.39332
1.40048
1.40522
1.40735
1.40669
1.40307
1.39635
1.38638
1.37306
1.35628
1.33601
1.31222
1.28493
1.25423
1.22023
1.18316
1.14344
1.10207
1.06114
1.02891
0.996935
0.963658
0.928739
0.89219
0.854149
0.814807
0.774374
0.733058
0.691056
0.648536
0.605606
0.562237
0.518491
0.47682
0.436642
0.397613
0.359761
0.323319
0.288637
0.256156
0.226316
0.200144
0.178369
0.167898
0.162403
0.159405
0.159349
0.15335
0.143041
0.130663
0.118133
0.106775
0.0972798
0.0898075
0.0841704
0.0800272
0.0770195
0.074842
0.0732615
0.07211
0.0712693
0.0706559
0.0702088
0.0698808
0.0696342
0.0694401
0.0692783
0.0691366
0.0690081
0.0688892
0.0687776
0.0686718
0.0685708
0.0684732
0.0683761
0.0682753
0.0681666
0.068054
0.0679318
0.0677955
0.0676476
0.0674918
0.0673315
0.0671698
0.0670086
0.0668477
0.0666838
0.0665122
0.0663289
0.0661334
0.0659288
0.0657197
0.0655094
0.0653004
0.065095
0.0648955
0.0647027
0.0645137
0.0643228
0.0641237
0.0639138
0.0636958
0.0634747
0.0632537
0.0630342
0.0628176
0.0626064
0.0624021
0.0622033
0.0620046
0.0618006
0.0615962
0.0613821
0.0611593
0.0609308
0.0607007
0.0604838
0.0603163
0.060235
0.0602254
0.0601608
0.268257
0.328502
0.361744
0.37924
0.386895
0.388739
0.38753
0.385345
0.384173
0.386935
0.394027
0.409748
0.438245
0.481841
0.539981
0.609348
0.685447
0.763059
0.831353
0.891067
0.942603
0.986045
1.02121
1.04795
1.06668
1.07876
1.08626
1.0914
1.09626
1.10251
1.11143
1.12388
1.14038
1.16115
1.18618
1.21529
1.24816
1.2844
1.3236
1.36532
1.40914
1.45469
1.5016
1.54959
1.59837
1.64772
1.69744
1.74735
1.79732
1.84642
1.89584
1.94555
1.99537
2.04502
2.0942
2.14259
2.1898
2.23542
2.279
2.32007
2.35813
2.39265
2.4231
2.44895
2.46966
2.48472
2.49365
2.49601
2.49139
2.47949
2.46004
2.43288
2.39795
2.35524
2.30486
2.24692
2.18131
2.10689
2.02778
1.94727
1.86441
1.7792
1.69203
1.60346
1.51408
1.42451
1.33534
1.24711
1.16032
1.07538
0.992584
0.911753
0.831717
0.755442
0.683585
0.61667
0.555028
0.498788
0.447893
0.401813
0.360071
0.322585
0.289096
0.263499
0.2446
0.22758
0.211733
0.194865
0.177525
0.16082
0.145676
0.132666
0.122002
0.113597
0.107174
0.102376
0.0988473
0.0962815
0.0944331
0.0931152
0.0921882
0.0915479
0.091115
0.0908289
0.0906438
0.0905267
0.0904551
0.0904137
0.0903924
0.0903838
0.0903825
0.090384
0.0903845
0.0903799
0.0903654
0.0903377
0.090296
0.0902409
0.0901708
0.0900875
0.0899937
0.089892
0.0897845
0.0896728
0.0895571
0.0894359
0.0893071
0.0891686
0.0890204
0.0888648
0.088705
0.0885435
0.0883822
0.0882226
0.0880658
0.0879121
0.0877601
0.0876066
0.0874484
0.0872843
0.0871159
0.0869466
0.0867786
0.0866132
0.0864509
0.0862927
0.0861393
0.08599
0.0858421
0.0856924
0.0855392
0.0853806
0.0852181
0.0850543
0.0848924
0.0847448
0.0846439
0.0846266
0.0846781
0.0846599
0.356799
0.420543
0.462556
0.48814
0.503063
0.511989
0.518874
0.527537
0.542355
0.563347
0.59454
0.641077
0.704933
0.783091
0.870363
0.95935
1.04256
1.11387
1.16929
1.20826
1.23211
1.24321
1.24456
1.23952
1.23158
1.22403
1.21964
1.22046
1.22774
1.24203
1.26329
1.29103
1.32445
1.36256
1.40432
1.44874
1.49495
1.54227
1.59019
1.63843
1.68685
1.73544
1.78428
1.8335
1.88324
1.9336
1.98469
2.03655
2.0891
2.14275
2.19761
2.25356
2.31034
2.36765
2.42512
2.48233
2.53879
2.59401
2.64743
2.69843
2.74639
2.79065
2.83053
2.86535
2.89441
2.91704
2.93261
2.94052
2.94023
2.93131
2.91337
2.88617
2.84956
2.80349
2.74801
2.6832
2.60898
2.52472
2.43164
2.33598
2.23735
2.13603
2.03257
1.92767
1.82208
1.71655
1.61179
1.50848
1.4072
1.30846
1.21264
1.11988
1.02976
0.942983
0.8602
0.781887
0.708491
0.640386
0.577795
0.520651
0.468799
0.422221
0.380946
0.345203
0.314412
0.287045
0.262056
0.238467
0.21618
0.195593
0.177176
0.161269
0.148002
0.137293
0.128891
0.122456
0.117619
0.114039
0.111423
0.109536
0.108194
0.107258
0.10662
0.106197
0.105928
0.105766
0.105679
0.105642
0.105639
0.105658
0.10569
0.105728
0.105766
0.105799
0.105821
0.10583
0.105821
0.105795
0.105753
0.105695
0.105625
0.105543
0.105453
0.105357
0.105254
0.105145
0.105029
0.104905
0.104771
0.104629
0.104482
0.104333
0.104181
0.104031
0.103881
0.103733
0.103587
0.103441
0.103293
0.103141
0.102986
0.102831
0.102677
0.102526
0.102378
0.102235
0.102098
0.101966
0.101839
0.101715
0.10159
0.101464
0.101337
0.101213
0.101094
0.100985
0.10091
0.100899
0.100945
0.100995
0.440088
0.518419
0.575046
0.611286
0.634576
0.651511
0.667962
0.689931
0.718129
0.755551
0.80566
0.869857
0.946271
1.0296
1.11243
1.18699
1.24702
1.28901
1.31266
1.32051
1.3168
1.30639
1.29393
1.28338
1.27776
1.2791
1.28842
1.30589
1.33098
1.3627
1.39978
1.44086
1.48464
1.52993
1.57581
1.62158
1.66679
1.71125
1.75496
1.7981
1.84093
1.88379
1.92703
1.971
2.01597
2.06218
2.10977
2.15878
2.20923
2.26148
2.31552
2.3712
2.42826
2.48639
2.54519
2.60422
2.66299
2.72096
2.77752
2.83204
2.88384
2.93221
2.97642
3.01571
3.04933
3.07652
3.09657
3.1088
3.11259
3.10739
3.09276
3.06836
3.03398
2.98951
2.93494
2.8703
2.79557
2.71045
2.61472
2.51549
2.41286
2.30731
2.19948
2.09014
1.98009
1.8701
1.76092
1.65322
1.5476
1.44455
1.34447
1.24756
1.15383
1.06318
0.976287
0.893463
0.815049
0.741394
0.67278
0.609338
0.551095
0.498103
0.45044
0.40806
0.370451
0.336735
0.306001
0.277537
0.251179
0.227131
0.205687
0.187065
0.171335
0.158402
0.148032
0.139896
0.133629
0.128876
0.125317
0.122682
0.120756
0.119367
0.118382
0.117697
0.117233
0.11693
0.116741
0.116635
0.116587
0.116578
0.116595
0.116628
0.116668
0.116709
0.116744
0.116768
0.116776
0.116768
0.116743
0.116701
0.116646
0.116578
0.116501
0.116415
0.116322
0.116224
0.116118
0.116005
0.115883
0.115753
0.115617
0.115476
0.115332
0.115188
0.115044
0.114902
0.114761
0.114622
0.114482
0.114341
0.114196
0.114051
0.113908
0.113767
0.113629
0.113497
0.113371
0.113253
0.113143
0.113039
0.112937
0.112835
0.112736
0.112641
0.112548
0.112461
0.11239
0.112364
0.112381
0.112443
0.520346
0.625501
0.702808
0.753397
0.787305
0.813409
0.839456
0.867041
0.900256
0.942957
0.996468
1.0593
1.12725
1.19419
1.25354
1.29985
1.33018
1.34454
1.34572
1.33824
1.3272
1.31721
1.31187
1.31351
1.32324
1.34121
1.36679
1.39885
1.43598
1.4767
1.5196
1.56342
1.60713
1.64997
1.69143
1.73127
1.76948
1.80625
1.84191
1.87688
1.91164
1.94667
1.98241
2.01926
2.05753
2.09745
2.13913
2.18262
2.22795
2.27544
2.32511
2.3768
2.43028
2.48522
2.54127
2.598
2.65493
2.71154
2.76723
2.82141
2.87339
2.92247
2.96793
3.009
3.04491
3.07488
3.09815
3.114
3.12173
3.12076
3.11055
3.09069
3.0609
3.02101
2.97096
2.91074
2.84038
2.75974
2.66836
2.57252
2.47309
2.37056
2.26564
2.15909
2.05169
1.94419
1.83728
1.73159
1.62765
1.52592
1.42675
1.33035
1.23678
1.14591
1.0582
0.97398
0.89356
0.81728
0.745457
0.678329
0.616067
0.558822
0.506725
0.459744
0.417503
0.379342
0.344498
0.312383
0.282814
0.2559
0.231849
0.210817
0.192843
0.177829
0.165554
0.15571
0.147947
0.141909
0.137267
0.133736
0.131076
0.129092
0.127629
0.126564
0.1258
0.125263
0.124894
0.124649
0.124496
0.124409
0.124369
0.124361
0.124373
0.124396
0.124423
0.124445
0.124457
0.124455
0.124439
0.124409
0.124364
0.124308
0.124242
0.124167
0.124085
0.123998
0.123904
0.123803
0.123695
0.123578
0.123454
0.123325
0.123193
0.123058
0.122924
0.122791
0.12266
0.122531
0.122402
0.122272
0.122141
0.122009
0.121877
0.121747
0.121621
0.121501
0.121387
0.121283
0.121187
0.1211
0.121016
0.120935
0.120855
0.120778
0.1207
0.120621
0.120546
0.120496
0.12048
0.120532
0.587
0.730241
0.836287
0.905556
0.951932
0.986599
1.01305
1.03833
1.06791
1.10456
1.14823
1.19625
1.24414
1.28683
1.32
1.34124
1.35058
1.35038
1.34454
1.33746
1.33309
1.33434
1.34288
1.35921
1.38295
1.41309
1.44829
1.48708
1.52799
1.56969
1.61106
1.6512
1.68948
1.7255
1.75915
1.7905
1.81981
1.84749
1.87402
1.89996
1.92584
1.95219
1.97948
2.0081
2.03838
2.07053
2.10468
2.14087
2.17916
2.21985
2.26295
2.30834
2.35582
2.4051
2.45585
2.50769
2.56018
2.61284
2.66517
2.71657
2.76646
2.81417
2.85901
2.90025
2.93715
2.96892
2.99479
3.014
3.02582
3.02958
3.02468
3.01062
2.98704
2.95368
2.91041
2.8572
2.79407
2.72098
2.63764
2.54921
2.45708
2.36179
2.26404
2.16459
2.06417
1.96347
1.86309
1.76356
1.66533
1.56875
1.47408
1.3815
1.29105
1.20259
1.11646
1.033
0.952571
0.875557
0.802329
0.73323
0.668554
0.608561
0.553447
0.503242
0.457691
0.416282
0.378389
0.343514
0.311452
0.282246
0.256037
0.232943
0.212987
0.196078
0.182012
0.170507
0.161233
0.153851
0.148035
0.143496
0.139981
0.137283
0.135227
0.133675
0.132516
0.131659
0.131034
0.130587
0.130273
0.130061
0.129923
0.129839
0.129794
0.129775
0.129772
0.129774
0.129775
0.129768
0.129752
0.129725
0.129686
0.129637
0.129579
0.129514
0.129442
0.129365
0.129283
0.129195
0.129099
0.128997
0.128887
0.128771
0.128651
0.128529
0.128407
0.128286
0.128167
0.12805
0.127934
0.127818
0.1277
0.127581
0.127463
0.127346
0.127233
0.127125
0.127024
0.126932
0.126849
0.126775
0.126705
0.126638
0.126572
0.126505
0.126434
0.126356
0.126273
0.126203
0.126158
0.126193
0.621071
0.821385
0.965083
1.05515
1.11224
1.14672
1.16972
1.1888
1.20899
1.23272
1.25981
1.288
1.31393
1.33443
1.34753
1.35309
1.35275
1.34947
1.34665
1.34737
1.35383
1.36717
1.38752
1.41426
1.44627
1.48217
1.52052
1.55993
1.59919
1.63725
1.67331
1.7068
1.73741
1.76505
1.78981
1.81198
1.83197
1.8503
1.86753
1.88423
1.90099
1.91833
1.93674
1.95662
1.97828
2.00197
2.02783
2.05593
2.0863
2.11924
2.15476
2.19277
2.23308
2.27545
2.3196
2.36519
2.41185
2.45919
2.50675
2.55404
2.60055
2.64569
2.68884
2.72934
2.76648
2.79951
2.82766
2.85014
2.86617
2.87502
2.87599
2.86849
2.85203
2.82626
2.79095
2.74602
2.69146
2.6273
2.55339
2.4742
2.39121
2.30504
2.21644
2.12615
2.0349
1.94328
1.85181
1.76091
1.67088
1.58193
1.49423
1.40782
1.3227
1.23872
1.15604
1.07507
0.996235
0.919973
0.846743
0.776993
0.711138
0.649548
0.592502
0.540109
0.492225
0.448466
0.408329
0.371388
0.337427
0.306433
0.278492
0.253687
0.232032
0.213442
0.197737
0.184662
0.173915
0.16518
0.158146
0.152529
0.148076
0.144572
0.141833
0.139707
0.13807
0.13682
0.135874
0.135166
0.134642
0.13426
0.133987
0.133796
0.133666
0.133581
0.133526
0.133491
0.133464
0.13344
0.133412
0.133379
0.133338
0.13329
0.133236
0.133175
0.13311
0.13304
0.132967
0.132888
0.132804
0.132713
0.132616
0.132513
0.132406
0.132296
0.132186
0.132077
0.13197
0.131865
0.131762
0.131658
0.131554
0.131449
0.131343
0.131239
0.131138
0.131041
0.130952
0.13087
0.130798
0.130733
0.130673
0.130615
0.130556
0.130495
0.130427
0.130348
0.130258
0.130173
0.130108
0.130127
0.601158
0.898852
1.07962
1.18416
1.24586
1.28109
1.30059
1.31207
1.32078
1.32963
1.3393
1.34881
1.35646
1.36091
1.36187
1.3603
1.35817
1.35789
1.36168
1.37112
1.38694
1.40906
1.43674
1.46884
1.50402
1.5409
1.57816
1.61464
1.64936
1.68156
1.71071
1.73648
1.75878
1.77771
1.79353
1.80662
1.81749
1.82671
1.83487
1.84257
1.85041
1.85891
1.86857
1.8798
1.89293
1.90822
1.92585
1.9459
1.96843
1.99364
2.02155
2.05208
2.08506
2.12028
2.15751
2.19647
2.23686
2.27836
2.32061
2.36321
2.40574
2.44772
2.48864
2.52789
2.56485
2.5988
2.629
2.65463
2.67489
2.68894
2.69599
2.69533
2.68631
2.66846
2.64142
2.60501
2.5592
2.50403
2.43948
2.36967
2.2959
2.21894
2.13964
2.05881
1.97714
1.89523
1.8135
1.73225
1.65162
1.57167
1.49239
1.4137
1.33547
1.25748
1.17975
1.10269
1.02679
0.952547
0.880514
0.811244
0.745269
0.683068
0.625012
0.571297
0.521887
0.476514
0.434789
0.396353
0.360992
0.32865
0.299364
0.273186
0.250116
0.230078
0.212912
0.198393
0.186251
0.176197
0.167944
0.161221
0.155782
0.151412
0.147923
0.145157
0.142978
0.141274
0.139951
0.138932
0.138154
0.137564
0.137123
0.136796
0.136556
0.136383
0.136257
0.136166
0.136097
0.13604
0.135989
0.135939
0.135888
0.135833
0.135775
0.135713
0.135649
0.135582
0.135512
0.135439
0.135361
0.135279
0.135191
0.135098
0.135001
0.134903
0.134803
0.134705
0.134608
0.134513
0.13442
0.134327
0.134234
0.13414
0.134046
0.133953
0.133862
0.133775
0.133695
0.133622
0.133556
0.133498
0.133444
0.13339
0.133336
0.133277
0.133209
0.133128
0.133035
0.132942
0.132865
0.132871
0.599355
0.943951
1.15699
1.27832
1.3477
1.38486
1.40171
1.40644
1.40484
1.40068
1.39586
1.39095
1.38585
1.38057
1.37571
1.37245
1.37234
1.37686
1.38704
1.40329
1.42536
1.45248
1.48352
1.51718
1.55213
1.5871
1.62094
1.6527
1.68161
1.70715
1.72895
1.7469
1.76103
1.77158
1.77888
1.78342
1.78574
1.78644
1.78614
1.78547
1.78501
1.78532
1.7869
1.79015
1.79545
1.80305
1.81316
1.82591
1.84132
1.85954
1.88053
1.9042
1.9304
1.95896
1.98967
2.02231
2.05664
2.09242
2.12937
2.16722
2.20564
2.24427
2.28269
2.32042
2.35691
2.39152
2.42351
2.4521
2.47641
2.49555
2.50859
2.51468
2.513
2.50289
2.48384
2.45554
2.41787
2.37087
2.31469
2.2532
2.18749
2.11853
2.04734
1.97484
1.90183
1.82891
1.75645
1.68466
1.61354
1.54297
1.47272
1.40253
1.33213
1.26118
1.18949
1.11747
1.04561
0.974484
0.904706
0.836928
0.77179
0.709871
0.651638
0.597378
0.547155
0.500815
0.458075
0.418642
0.382317
0.349016
0.318738
0.291502
0.267296
0.246046
0.227614
0.211803
0.198374
0.187071
0.177632
0.169808
0.163367
0.158099
0.153819
0.150364
0.147594
0.145388
0.143643
0.142272
0.141201
0.140371
0.139732
0.139243
0.13887
0.138588
0.138374
0.138211
0.138085
0.137983
0.137896
0.137819
0.137747
0.137676
0.137607
0.137537
0.137467
0.137397
0.137326
0.137253
0.137177
0.137098
0.137015
0.136929
0.136839
0.136748
0.136656
0.136566
0.136476
0.136389
0.136304
0.136219
0.136135
0.136049
0.135964
0.135879
0.135796
0.135718
0.135644
0.135576
0.135515
0.13546
0.135409
0.135358
0.135304
0.135246
0.135177
0.135096
0.135003
0.134908
0.134827
0.13482
0.599767
0.984156
1.21321
1.34227
1.41677
1.4563
1.47233
1.47298
1.46439
1.45117
1.43647
1.42223
1.40961
1.3995
1.39282
1.39055
1.39358
1.4025
1.41745
1.43804
1.46348
1.49267
1.52433
1.55716
1.58991
1.62144
1.65078
1.67715
1.69996
1.71881
1.73351
1.74406
1.7506
1.75344
1.75299
1.74978
1.7444
1.73746
1.72962
1.72151
1.71374
1.70688
1.70141
1.69779
1.69636
1.69742
1.70117
1.70775
1.7172
1.72953
1.74467
1.76252
1.78291
1.80569
1.83068
1.85771
1.88658
1.91714
1.94919
1.98255
2.017
2.05231
2.08816
2.1242
2.15998
2.19494
2.22841
2.25962
2.28766
2.31156
2.33028
2.34278
2.34807
2.34525
2.33362
2.31267
2.28214
2.24204
2.19286
2.13797
2.07844
2.01548
1.95034
1.88415
1.81789
1.75224
1.68763
1.62419
1.56181
1.50015
1.43881
1.37728
1.31508
1.25172
1.18681
1.12065
1.05374
0.986639
0.920038
0.85466
0.791231
0.73042
0.672782
0.618693
0.568315
0.521601
0.478367
0.438391
0.401497
0.367592
0.336643
0.308644
0.283567
0.261342
0.241846
0.224908
0.210323
0.197865
0.187303
0.178412
0.170978
0.164805
0.159712
0.15554
0.152144
0.1494
0.147196
0.145437
0.144042
0.142942
0.142078
0.141403
0.140877
0.140468
0.140149
0.1399
0.139703
0.139543
0.13941
0.139295
0.139192
0.139098
0.139009
0.138925
0.138843
0.138763
0.138685
0.138607
0.138529
0.138449
0.138367
0.138283
0.138196
0.138109
0.138022
0.137936
0.137852
0.137769
0.137689
0.137609
0.13753
0.137451
0.137372
0.137293
0.137216
0.137143
0.137073
0.137009
0.136951
0.136897
0.136846
0.136795
0.136742
0.136683
0.136614
0.136535
0.136443
0.13635
0.136269
0.136253
0.667395
1.03183
1.2492
1.37815
1.45603
1.49847
1.51563
1.51519
1.50346
1.48561
1.46571
1.44673
1.43071
1.41904
1.41271
1.41237
1.41834
1.43053
1.44848
1.47136
1.49807
1.52738
1.55801
1.58869
1.61828
1.64579
1.67036
1.69135
1.70829
1.72092
1.72914
1.73303
1.7328
1.72883
1.72159
1.71163
1.69958
1.68608
1.67181
1.65742
1.64353
1.6307
1.61946
1.61023
1.60338
1.59919
1.59786
1.59954
1.60427
1.61193
1.6224
1.63554
1.65121
1.66924
1.68947
1.71176
1.73598
1.76201
1.78973
1.81905
1.84986
1.88201
1.91533
1.94958
1.98442
2.01942
2.05397
2.08734
2.11864
2.14682
2.17074
2.18917
2.20091
2.20482
2.19993
2.1855
2.16109
2.12654
2.08292
2.03275
1.9773
1.91805
1.85653
1.79418
1.73222
1.67156
1.61274
1.5559
1.50084
1.44706
1.39392
1.34066
1.28657
1.23095
1.17317
1.11342
1.0521
0.989762
0.927116
0.86493
0.803992
0.745044
0.688716
0.635466
0.585546
0.539011
0.49577
0.455672
0.418577
0.384392
0.353069
0.32458
0.298885
0.275915
0.25556
0.237672
0.222075
0.208576
0.196975
0.187073
0.178679
0.171611
0.165703
0.160798
0.156755
0.153445
0.150754
0.148579
0.146832
0.145435
0.144323
0.14344
0.142742
0.142189
0.14175
0.141401
0.14112
0.140891
0.140701
0.140539
0.140398
0.140272
0.140157
0.140051
0.139951
0.139857
0.139767
0.13968
0.139594
0.139509
0.139424
0.139338
0.139252
0.139166
0.13908
0.138996
0.138914
0.138834
0.138756
0.138679
0.138603
0.138527
0.138452
0.138377
0.138304
0.138234
0.138168
0.138105
0.138048
0.137994
0.137942
0.137891
0.137836
0.137777
0.137709
0.137632
0.137545
0.137456
0.137378
0.137355
0.626358
1.01347
1.24733
1.38484
1.46832
1.51511
1.53545
1.53687
1.52565
1.50725
1.48624
1.4662
1.44973
1.43854
1.43359
1.43527
1.44351
1.45781
1.47734
1.50103
1.52766
1.55597
1.5847
1.61267
1.63883
1.66228
1.6823
1.69833
1.71001
1.71714
1.71971
1.71785
1.71184
1.7021
1.68913
1.67352
1.65593
1.63703
1.61751
1.59803
1.57924
1.5617
1.54592
1.53234
1.5213
1.51309
1.50789
1.50582
1.50692
1.51098
1.51784
1.52732
1.53926
1.55351
1.56993
1.58839
1.60879
1.63106
1.65513
1.68097
1.70856
1.73785
1.76877
1.8012
1.83494
1.86965
1.90485
1.93988
1.97386
2.00573
2.03425
2.05803
2.07565
2.08568
2.08687
2.0782
2.05896
2.02888
1.98941
1.94228
1.88898
1.83127
1.77099
1.70994
1.64971
1.59153
1.53616
1.48383
1.43431
1.38697
1.34093
1.29518
1.24872
1.20063
1.15007
1.09698
1.04166
0.984629
0.926554
0.868221
0.810454
0.754042
0.699674
0.647877
0.598984
0.553142
0.510348
0.470524
0.43357
0.399408
0.367985
0.339259
0.313185
0.28969
0.268678
0.250019
0.233566
0.219154
0.206615
0.195776
0.186472
0.178541
0.171829
0.16619
0.161488
0.157595
0.154395
0.15178
0.149656
0.14794
0.146558
0.145448
0.144558
0.143845
0.143272
0.14281
0.142435
0.142127
0.14187
0.141652
0.141464
0.1413
0.141152
0.141019
0.140897
0.140784
0.140677
0.140577
0.140481
0.140387
0.140295
0.140205
0.140116
0.140028
0.139941
0.139856
0.139774
0.139694
0.139617
0.139541
0.139466
0.139392
0.139319
0.139247
0.139176
0.139108
0.139043
0.138982
0.138925
0.13887
0.138818
0.138765
0.13871
0.138651
0.138584
0.13851
0.138428
0.138345
0.138272
0.138244
0.626154
0.996723
1.23063
1.3713
1.45908
1.51073
1.53593
1.54173
1.53413
1.51851
1.49959
1.48125
1.46638
1.45687
1.45372
1.4572
1.46703
1.48248
1.50258
1.52614
1.55192
1.57866
1.60517
1.63033
1.65319
1.67294
1.68891
1.70064
1.70783
1.71034
1.70821
1.70161
1.69087
1.67643
1.65883
1.63869
1.61669
1.59351
1.56987
1.54644
1.52387
1.50272
1.4835
1.46663
1.45245
1.4412
1.43307
1.42817
1.4265
1.4278
1.43187
1.43852
1.44758
1.4589
1.47234
1.4878
1.50518
1.52445
1.54558
1.56857
1.59346
1.62027
1.64903
1.67973
1.71226
1.74644
1.78188
1.81804
1.8541
1.88901
1.92146
1.94994
1.97279
1.98833
1.99497
1.99136
1.97653
1.95018
1.91365
1.8682
1.81547
1.75744
1.69631
1.63429
1.57339
1.51526
1.46097
1.41098
1.36508
1.32256
1.28232
1.24308
1.20355
1.16254
1.11898
1.07258
1.02348
0.972088
0.919033
0.865076
0.811043
0.757745
0.705908
0.656113
0.608763
0.564084
0.522157
0.482971
0.446477
0.412619
0.381349
0.352624
0.326391
0.302582
0.281108
0.261859
0.244709
0.229523
0.216159
0.204473
0.194325
0.185575
0.178086
0.171725
0.166364
0.161879
0.158154
0.15508
0.152559
0.150502
0.148829
0.147473
0.146375
0.145486
0.144765
0.144178
0.143697
0.1433
0.142968
0.142687
0.142446
0.142236
0.142051
0.141886
0.141737
0.1416
0.141475
0.141358
0.141248
0.141143
0.141043
0.140945
0.140851
0.140759
0.140669
0.140582
0.140499
0.140418
0.140339
0.140263
0.140189
0.140115
0.140043
0.139973
0.139903
0.139837
0.139773
0.139712
0.139655
0.139599
0.139546
0.139492
0.139437
0.139378
0.139314
0.139244
0.139168
0.139092
0.139024
0.138993
0.622448
0.972218
1.2016
1.34277
1.43382
1.49049
1.5216
1.53354
1.53178
1.52137
1.50686
1.49216
1.48025
1.47317
1.47198
1.47697
1.48781
1.50374
1.52374
1.54662
1.57116
1.59614
1.62043
1.64299
1.66292
1.67948
1.69208
1.70028
1.70385
1.70267
1.69682
1.68651
1.67209
1.65402
1.63285
1.60924
1.58387
1.55745
1.5307
1.5043
1.47888
1.45503
1.43322
1.41388
1.39731
1.38375
1.37336
1.36625
1.36241
1.36155
1.36343
1.36787
1.3747
1.38376
1.39492
1.4081
1.4232
1.44019
1.45907
1.47985
1.5026
1.5274
1.55434
1.58347
1.61482
1.64829
1.68366
1.72048
1.75803
1.79532
1.83101
1.86348
1.89089
1.91129
1.92276
1.92361
1.91253
1.88936
1.85482
1.81001
1.75664
1.69688
1.63324
1.56835
1.50471
1.44447
1.38912
1.3394
1.29527
1.25593
1.22012
1.18629
1.15284
1.11831
1.0814
1.04152
0.998646
0.953067
0.905321
0.856118
0.806256
0.756543
0.707719
0.6604
0.615044
0.571946
0.531262
0.493049
0.457306
0.42401
0.393127
0.364618
0.338432
0.314505
0.292758
0.273094
0.255409
0.239592
0.225526
0.213095
0.202183
0.192672
0.184446
0.177386
0.171375
0.166296
0.162038
0.158492
0.155557
0.15314
0.151158
0.149538
0.148214
0.147134
0.146251
0.145527
0.14493
0.144435
0.14402
0.143669
0.143368
0.143108
0.14288
0.142679
0.142499
0.142337
0.142189
0.142053
0.141927
0.14181
0.141698
0.141592
0.141491
0.141393
0.1413
0.14121
0.141124
0.141041
0.140961
0.140884
0.140809
0.140736
0.140664
0.140594
0.140526
0.140461
0.140398
0.140337
0.14028
0.140225
0.140171
0.140117
0.140062
0.140005
0.139944
0.139879
0.139809
0.13974
0.139679
0.139646
0.612753
0.9412
1.1632
1.30353
1.39726
1.45895
1.49654
1.51568
1.52118
1.51755
1.50901
1.49923
1.49121
1.48702
1.48786
1.49413
1.50558
1.52153
1.54102
1.56291
1.58606
1.60929
1.63154
1.65184
1.66933
1.68331
1.69325
1.69873
1.69955
1.69562
1.68703
1.674
1.6569
1.63619
1.61246
1.58634
1.55854
1.52977
1.50076
1.47218
1.44467
1.41879
1.39503
1.37377
1.35533
1.33993
1.32772
1.31879
1.31316
1.31051
1.31062
1.31329
1.31836
1.32568
1.33514
1.34662
1.36007
1.37542
1.39268
1.41187
1.43306
1.45634
1.48184
1.50967
1.53994
1.57266
1.60773
1.64482
1.68336
1.7224
1.76064
1.79639
1.82767
1.85225
1.86793
1.87262
1.86486
1.84423
1.81098
1.76607
1.71118
1.64863
1.58121
1.51198
1.44396
1.37982
1.32157
1.27033
1.22627
1.18862
1.15593
1.12642
1.09818
1.06946
1.0387
1.00506
0.968295
0.928555
0.886265
0.842056
0.796676
0.750903
0.705471
0.661014
0.618031
0.576873
0.53776
0.500812
0.466081
0.433579
0.403294
0.375198
0.349248
0.325386
0.303541
0.283631
0.26557
0.249266
0.234627
0.221561
0.209974
0.199774
0.190862
0.183137
0.176496
0.170832
0.166039
0.162011
0.158649
0.155857
0.153549
0.151647
0.150083
0.148796
0.147738
0.146865
0.146142
0.145539
0.145033
0.144605
0.14424
0.143925
0.143651
0.14341
0.143196
0.143006
0.142834
0.142677
0.142534
0.142402
0.142279
0.142163
0.142054
0.141951
0.141852
0.141759
0.141669
0.141584
0.141503
0.141424
0.141349
0.141276
0.141204
0.141135
0.141069
0.141004
0.140942
0.140883
0.140826
0.140771
0.140718
0.140665
0.140612
0.140557
0.1405
0.14044
0.140377
0.140315
0.14026
0.140228
0.612896
0.905093
1.11654
1.25558
1.35185
1.41868
1.46321
1.49031
1.50409
1.50841
1.50696
1.50312
1.49972
1.49886
1.50186
1.50929
1.52111
1.53677
1.55547
1.57618
1.59785
1.61938
1.63978
1.65813
1.67362
1.68558
1.69349
1.69698
1.69583
1.68998
1.67951
1.66464
1.64574
1.62328
1.59782
1.57002
1.54056
1.51016
1.47955
1.44939
1.42032
1.39289
1.36757
1.34474
1.32471
1.30771
1.29388
1.28336
1.27617
1.272
1.27063
1.27187
1.27556
1.28157
1.28978
1.30008
1.31241
1.32669
1.34291
1.36107
1.38124
1.40349
1.42796
1.45481
1.48418
1.5162
1.55085
1.58795
1.62706
1.66733
1.70749
1.74585
1.78034
1.80843
1.8277
1.83565
1.83076
1.81212
1.77961
1.73399
1.67688
1.61072
1.53856
1.46385
1.39012
1.32061
1.2579
1.20359
1.15811
1.12075
1.08998
1.06373
1.03982
1.01622
0.991185
0.963545
0.932821
0.898967
0.86228
0.823292
0.782679
0.741172
0.699482
0.658245
0.617985
0.579099
0.541864
0.506459
0.472987
0.4415
0.412013
0.384515
0.358975
0.335345
0.313564
0.293564
0.275273
0.258617
0.243526
0.229929
0.217756
0.206933
0.197385
0.189029
0.181776
0.175532
0.1702
0.16568
0.161874
0.158688
0.156033
0.15383
0.152005
0.150495
0.149245
0.148209
0.147347
0.146627
0.146022
0.14551
0.145073
0.144698
0.144373
0.14409
0.14384
0.143619
0.143421
0.143243
0.143081
0.142933
0.142798
0.142672
0.142554
0.142444
0.14234
0.142242
0.14215
0.142062
0.141979
0.1419
0.141824
0.141751
0.14168
0.141612
0.141546
0.141483
0.141423
0.141365
0.141309
0.141256
0.141204
0.141153
0.141102
0.14105
0.140997
0.140943
0.140887
0.140833
0.140784
0.140753
0.644614
0.88689
1.07743
1.21016
1.30684
1.37767
1.42836
1.46285
1.48449
1.49651
1.50207
1.50415
1.50538
1.50783
1.51292
1.5214
1.53342