/*--------------------------------*- C++ -*----------------------------------*\
  =========                 |
  \\      /  F ield         | OpenFOAM: The Open Source CFD Toolbox
   \\    /   O peration     | Website:  https://openfoam.org
    \\  /    A nd           | Version:  9
     \\/     M anipulation  |
\*---------------------------------------------------------------------------*/
FoamFile
{
    format      ascii;
    class       volScalarField;
    location    "0.04";
    object      nut;
}
// * * * * * * * * * * * * * * * * * * * * * * * * * * * * * * * * * * * * * //

dimensions      [0 2 -1 0 0 0 0];

internalField   nonuniform List<scalar> 
12225
(
3.04503e-05
1.83224e-05
1.18442e-05
8.44057e-06
6.59795e-06
5.51592e-06
4.79903e-06
4.264e-06
3.83021e-06
3.4622e-06
3.14324e-06
2.86485e-06
2.62318e-06
2.41968e-06
2.27109e-06
2.36882e-06
3.89916e-06
1.82922e-05
0.00016339
0.000102009
8.2096e-05
7.2886e-05
6.76016e-05
6.38441e-05
6.05958e-05
5.7538e-05
5.46327e-05
5.19151e-05
4.94283e-05
4.72197e-05
4.53592e-05
4.40012e-05
4.35765e-05
4.46038e-05
4.69139e-05
7.4699e-05
0.000340121
0.000220947
0.00017868
0.000157231
0.000144104
0.000134839
0.000127356
0.000120743
0.000114681
0.000109115
0.000104102
9.9757e-05
9.625e-05
9.3884e-05
9.32256e-05
9.37665e-05
8.88414e-05
0.000120058
0.000504278
0.000350105
0.000285045
0.000249507
0.000226894
0.000210812
0.000198155
0.00018736
0.000177709
0.000168931
0.000161
0.000154039
0.000148282
0.000144072
0.000141524
0.000137053
0.000123653
0.000151795
0.000629183
0.000471743
0.000391252
0.000343464
0.000311706
0.000288682
0.000270613
0.000255441
0.000242081
0.000230018
0.000219092
0.000209372
0.000201085
0.00019447
0.000188759
0.000177311
0.000154035
0.000174744
0.000714407
0.000575653
0.00049008
0.000434307
0.000395273
0.00036615
0.000343055
0.000323702
0.00030677
0.00029155
0.00027774
0.000265323
0.000254448
0.000245106
0.00023546
0.000216607
0.00018344
0.000192862
0.000768951
0.000658054
0.000576677
0.000518147
0.000474699
0.00044109
0.000413912
0.000390964
0.000370867
0.000352809
0.000336385
0.00032148
0.000308116
0.000295933
0.000282059
0.000256239
0.000213802
0.000209256
0.000802489
0.000719607
0.000648566
0.000592151
0.000547514
0.000511511
0.000481622
0.000456012
0.000433422
0.000413045
0.00039443
0.000377383
0.00036177
0.00034684
0.00032888
0.000297071
0.000246552
0.000226619
0.000822586
0.000763383
0.000705378
0.000654699
0.000611862
0.000575686
0.000544702
0.000517614
0.000493424
0.000471432
0.000451205
0.000432496
0.000415016
0.000397652
0.000376122
0.000339663
0.000282785
0.000247416
0.000834431
0.000793279
0.0007483
0.000705384
0.000666643
0.00063231
0.000601868
0.000574604
0.000549854
0.000527098
0.00050597
0.000486206
0.000467385
0.000448109
0.000423833
0.000384299
0.000323238
0.000273842
0.000841345
0.000813023
0.000779434
0.000744818
0.000711556
0.000680617
0.000652163
0.000625986
0.00060176
0.000579166
0.000557944
0.000537835
0.000518329
0.000497851
0.000471871
0.000430949
0.000368167
0.000307582
0.000845031
0.000824654
0.000799374
0.000771836
0.000744015
0.00071704
0.000691401
0.000667208
0.000644384
0.000622781
0.000602237
0.000582519
0.000563069
0.000542258
0.000515765
0.00047503
0.000412721
0.000345108
0.00084731
0.000832405
0.000813601
0.000792271
0.00076978
0.000747128
0.000724907
0.000703409
0.000682731
0.000662867
0.00064374
0.000625151
0.000606534
0.000586297
0.000560512
0.000521727
0.000462666
0.000392459
0.000848822
0.00083789
0.000824353
0.000808667
0.000791552
0.000773695
0.000755615
0.000737652
0.000720002
0.000702752
0.000685897
0.000669272
0.000652339
0.000633645
0.000609823
0.000574708
0.000521498
0.000453274
0.000849744
0.000841431
0.000831748
0.000820659
0.000808395
0.000795294
0.000781688
0.000767849
0.000753974
0.000740179
0.000726488
0.000712764
0.000698527
0.000682544
0.000662133
0.000632518
0.000587855
0.000527115
0.000850259
0.000843501
0.000836328
0.000828553
0.000820149
0.000811201
0.000801849
0.000792241
0.000782504
0.000772719
0.000762896
0.000752903
0.000742334
0.000730225
0.000714611
0.000692091
0.000658166
0.000609965
0.000850516
0.000844581
0.000838847
0.000833154
0.000827409
0.000821591
0.000815722
0.000809848
0.000804016
0.000798247
0.000792506
0.000786657
0.000780365
0.000772931
0.000763041
0.000748508
0.000726305
0.000693568
0.000850619
0.000845044
0.000839995
0.000835378
0.000831135
0.000827239
0.000823691
0.000820502
0.000817681
0.000815209
0.000813027
0.000810996
0.000808851
0.000806116
0.000801986
0.000795199
0.000784003
0.000766441
0.000850605
0.000845042
0.000840074
0.000835651
0.000831766
0.000828445
0.000825735
0.000823687
0.000822335
0.00082168
0.000821679
0.000822223
0.000823122
0.000824068
0.000824597
0.000824042
0.000821513
0.000815968
0.000850402
0.000844278
0.000838427
0.000832846
0.000827629
0.000822934
0.000818938
0.000815801
0.000813643
0.000812529
0.000812459
0.000813364
0.000815099
0.000817439
0.000820068
0.000822562
0.00082439
0.000824935
0.000849846
0.000842162
0.000833961
0.000825479
0.000817111
0.000809281
0.000802366
0.000796652
0.000792334
0.000789509
0.000788188
0.0007883
0.000789704
0.000792193
0.0007955
0.000799295
0.000803184
0.000806713
0.000848342
0.000836703
0.000823172
0.000808841
0.000794785
0.00078183
0.000770523
0.000761185
0.000753968
0.0007489
0.000745915
0.000744872
0.000745575
0.000747781
0.000751212
0.000755553
0.000760451
0.000765498
0.000844456
0.000823876
0.000800107
0.000776207
0.000754119
0.000734816
0.000718666
0.000705722
0.000695871
0.00068892
0.000684629
0.000682728
0.000682926
0.00068492
0.000688394
0.000693024
0.00069846
0.000704299
0.000834871
0.000796369
0.000756224
0.000719955
0.000689329
0.000664403
0.000644663
0.000629487
0.000618292
0.000610567
0.000605863
0.000603775
0.000603928
0.000605969
0.00060956
0.000614372
0.000620065
0.00062624
0.000812425
0.00074328
0.000682702
0.000634812
0.000598267
0.000570886
0.000550397
0.000535331
0.000524621
0.000517492
0.00051335
0.00051172
0.000512198
0.000514427
0.000518084
0.000522866
0.000528466
0.000534511
0.000763164
0.000652168
0.000574717
0.000521795
0.00048506
0.000459304
0.000441436
0.000428862
0.000420256
0.000414769
0.000411805
0.000410919
0.000411756
0.000414014
0.000417427
0.000421751
0.000426742
0.000432088
0.000664523
0.000516087
0.00043633
0.000388871
0.000358606
0.000338642
0.000325344
0.000316721
0.00031101
0.000307502
0.000305744
0.000305417
0.000306279
0.000308129
0.000310791
0.0003141
0.000317892
0.00032194
0.000493496
0.000344714
0.00028283
0.000249784
0.000230099
0.000217845
0.000210026
0.000205107
0.000202054
0.000200134
0.000199126
0.000198888
0.000199314
0.000200313
0.000201798
0.000203684
0.000205881
0.000208259
0.000262082
0.000170908
0.000137867
0.000121061
0.000111479
0.000105821
0.000102304
0.000100022
9.85704e-05
9.75017e-05
9.67813e-05
9.63866e-05
9.62945e-05
9.64776e-05
9.69041e-05
9.75393e-05
9.83459e-05
9.92717e-05
5.95971e-05
4.25331e-05
3.13978e-05
2.41205e-05
1.93515e-05
1.62076e-05
1.41096e-05
1.26827e-05
1.17091e-05
1.10555e-05
1.06168e-05
1.03307e-05
1.01577e-05
1.00707e-05
1.00502e-05
1.00816e-05
1.01531e-05
1.02546e-05
4.57714e-05
5.256e-05
5.55718e-05
5.71769e-05
5.79002e-05
5.80241e-05
5.7708e-05
5.7042e-05
5.60845e-05
5.49902e-05
5.41619e-05
5.3603e-05
5.34263e-05
5.38057e-05
5.48926e-05
5.67075e-05
5.90815e-05
6.1716e-05
6.41824e-05
6.62481e-05
6.78286e-05
6.89295e-05
6.96733e-05
7.07169e-05
7.28398e-05
7.56382e-05
7.9017e-05
8.28073e-05
8.68127e-05
9.08589e-05
9.48173e-05
9.86053e-05
0.000102177
0.000105512
0.000108608
0.000111472
0.000114116
0.000116558
0.000118812
0.000120898
0.000122829
0.000124622
0.000126293
0.000127854
0.000129321
0.00013071
0.000132038
0.000133322
0.000134588
0.000135799
0.000136928
0.000137979
0.000138956
0.000139859
0.000140685
0.000141431
0.000142093
0.000142664
0.000143141
0.000143515
0.000143781
0.000143932
0.000143959
0.000143856
0.000143614
0.000143227
0.000142687
0.000141986
0.000141118
0.000140078
0.00013886
0.000137459
0.000135873
0.000134102
0.000132147
0.000130023
0.000127786
0.000125477
0.000123703
0.000121939
0.000120077
0.000118088
0.000115964
0.000113706
0.000111316
0.000108799
0.000106158
0.000103395
0.000100512
9.75054e-05
9.43591e-05
9.09299e-05
8.74775e-05
8.40155e-05
8.04738e-05
7.68219e-05
7.30545e-05
6.91853e-05
6.5244e-05
6.12668e-05
5.71304e-05
5.296e-05
5.01521e-05
4.73641e-05
0.000200486
0.000200005
0.000193925
0.000181788
0.000166155
0.000149675
0.000134342
0.000121303
0.00011093
0.000103053
9.72358e-05
9.29914e-05
8.98937e-05
8.76148e-05
8.59182e-05
8.46386e-05
8.36603e-05
8.28998e-05
8.22939e-05
8.17936e-05
8.13615e-05
8.09713e-05
8.06071e-05
8.02595e-05
7.99235e-05
7.95958e-05
7.92741e-05
7.8957e-05
7.86425e-05
7.83273e-05
7.80064e-05
7.76755e-05
7.73395e-05
7.69926e-05
7.66288e-05
7.6251e-05
7.58634e-05
7.54698e-05
7.50736e-05
7.46771e-05
7.42798e-05
7.38785e-05
7.3468e-05
7.30445e-05
7.26076e-05
7.21608e-05
7.17089e-05
7.12558e-05
7.08041e-05
7.03561e-05
6.99143e-05
6.94792e-05
6.90478e-05
6.86141e-05
6.81721e-05
6.77188e-05
6.72576e-05
6.67933e-05
6.63294e-05
6.58674e-05
6.54087e-05
6.49555e-05
6.45093e-05
6.40684e-05
6.36275e-05
6.31812e-05
6.27348e-05
6.22796e-05
6.18159e-05
6.13468e-05
6.08763e-05
6.04188e-05
6.00093e-05
5.96836e-05
5.94273e-05
5.91168e-05
8.28698e-05
0.000154484
0.000208962
0.000248316
0.000274962
0.000291408
0.000300013
0.000302911
0.000301872
0.000298055
0.000291278
0.000287224
0.000289234
0.000297786
0.000310855
0.000325025
0.000336716
0.000343306
0.000345041
0.000342979
0.000338827
0.000333997
0.00032931
0.000325105
0.000321657
0.000319196
0.000317936
0.000318114
0.000319973
0.000323746
0.000329638
0.000337813
0.000348383
0.000361404
0.000376875
0.000394736
0.00041488
0.000437157
0.00046138
0.000487332
0.000514774
0.00054344
0.000573035
0.000603228
0.000633636
0.000663814
0.000693227
0.000721234
0.000747106
0.000769372
0.000791407
0.000813524
0.000835698
0.000857855
0.000879908
0.000901757
0.000923291
0.00094439
0.000964923
0.00098475
0.00100373
0.0010217
0.0010385
0.00105399
0.00106799
0.00108035
0.00109092
0.00109953
0.00110605
0.00111036
0.00111233
0.00111185
0.00110882
0.00110316
0.00109472
0.0010833
0.00106844
0.00104908
0.00102426
0.000996682
0.00096709
0.000935831
0.000903154
0.000869274
0.000834399
0.000798733
0.000762476
0.000725826
0.000688973
0.000652079
0.000615137
0.000577052
0.000532994
0.000489228
0.000447588
0.000409245
0.000374863
0.000344742
0.000318914
0.000296656
0.000276918
0.000259375
0.000245727
0.000242779
0.000263334
0.000294749
0.000318576
0.000326643
0.000320847
0.00030626
0.000287633
0.000268442
0.000250857
0.000235965
0.000224062
0.000214957
0.000208226
0.000203389
0.000200003
0.000197702
0.000196194
0.000195254
0.000194707
0.000194422
0.000194303
0.000194284
0.000194323
0.000194394
0.000194476
0.000194556
0.000194623
0.000194665
0.000194673
0.000194635
0.000194539
0.000194379
0.00019415
0.000193871
0.00019355
0.000193197
0.000192816
0.000192414
0.000191993
0.000191555
0.000191099
0.000190619
0.000190113
0.00018958
0.000189025
0.000188457
0.000187884
0.000187312
0.000186743
0.000186177
0.000185615
0.000185052
0.000184483
0.000183898
0.000183296
0.00018268
0.000182056
0.000181433
0.000180815
0.000180202
0.000179594
0.000178986
0.000178373
0.000177749
0.000177101
0.000176417
0.000175676
0.000174886
0.000174052
0.000173171
0.00017224
0.000171285
0.000170401
0.000169724
0.00016927
0.000167898
0.000110688
0.000211876
0.000298639
0.000365557
0.000413802
0.000445813
0.000464332
0.000472307
0.0004726
0.000465969
0.000457384
0.000451535
0.000451934
0.000458447
0.000468005
0.000477186
0.000483396
0.000485438
0.000483518
0.000478747
0.000472619
0.000466556
0.000461747
0.000459172
0.000459679
0.000463992
0.000472699
0.00048625
0.000504936
0.000528877
0.00055801
0.000592082
0.00063066
0.000673156
0.000718871
0.00076705
0.000816938
0.00086783
0.000919102
0.000970228
0.00102078
0.00107042
0.00111887
0.00116591
0.00121134
0.00125499
0.00129668
0.00133631
0.00137348
0.00140964
0.00144567
0.00148169
0.00151764
0.00155339
0.00158879
0.00162366
0.00165782
0.00169106
0.00172315
0.00175386
0.00178294
0.00181015
0.00183523
0.00185791
0.00187795
0.00189508
0.00190906
0.00191965
0.00192663
0.00192982
0.00192903
0.0019241
0.00191493
0.00190138
0.00188335
0.00186068
0.00183312
0.00180023
0.00176154
0.00171879
0.00167271
0.00162376
0.0015723
0.00151866
0.00146314
0.00140606
0.00134771
0.00128839
0.00122836
0.00116787
0.00110699
0.0010452
0.000980136
0.000913017
0.000846111
0.000781154
0.000719681
0.000662949
0.000611827
0.000566531
0.000526939
0.000493343
0.000467896
0.00045291
0.000449372
0.000455944
0.000463891
0.000465777
0.000458847
0.000443967
0.000423759
0.000401205
0.000378865
0.000358539
0.000341215
0.000327194
0.000316313
0.000308159
0.000302235
0.000298063
0.000295226
0.000293377
0.000292241
0.000291603
0.000291302
0.000291224
0.000291291
0.00029145
0.000291662
0.000291899
0.000292137
0.000292356
0.000292538
0.000292663
0.000292713
0.000292676
0.000292541
0.000292333
0.000292066
0.000291751
0.000291397
0.000291011
0.000290598
0.00029016
0.000289695
0.000289197
0.000288662
0.00028809
0.000287486
0.000286863
0.000286231
0.000285598
0.000284971
0.000284349
0.000283733
0.000283115
0.000282487
0.000281839
0.000281165
0.000280468
0.000279759
0.000279047
0.000278341
0.000277641
0.000276945
0.000276248
0.00027554
0.000274808
0.000274034
0.000273199
0.000272268
0.000271242
0.000270123
0.000268907
0.00026759
0.000266205
0.000264881
0.000263828
0.000263104
0.000261913
0.000136889
0.000269971
0.000383386
0.000467904
0.000526448
0.000562709
0.00058026
0.000584059
0.00057845
0.000569185
0.000561494
0.000558576
0.00056108
0.00056735
0.000574618
0.000580326
0.000582922
0.000582126
0.000578785
0.000574475
0.000571066
0.00057037
0.000573946
0.000583034
0.000598545
0.000621056
0.000650804
0.000687691
0.000731297
0.000780918
0.000835619
0.000894312
0.000955841
0.00101907
0.00108296
0.00114662
0.00120934
0.00127058
0.00133
0.0013874
0.00144269
0.00149588
0.00154705
0.00159627
0.00164367
0.00168934
0.00173336
0.00177579
0.00181665
0.00185709
0.00189745
0.00193776
0.00197793
0.0020178
0.00205721
0.00209594
0.00213376
0.00217044
0.00220571
0.00223931
0.00227095
0.00230033
0.00232717
0.00235117
0.00237202
0.00238944
0.00240314
0.00241285
0.00241832
0.00241934
0.0024157
0.00240724
0.00239384
0.00237538
0.00235179
0.00232299
0.00228886
0.00224928
0.00220413
0.00215478
0.00210179
0.00204557
0.0019865
0.00192492
0.00186115
0.00179552
0.00172832
0.00165984
0.00159035
0.00152008
0.00144912
0.0013773
0.0013038
0.00122774
0.00115109
0.00107514
0.0010013
0.000930956
0.000865346
0.000805371
0.0007517
0.000705138
0.000667171
0.000639152
0.000621059
0.000611379
0.000605338
0.000597766
0.000585453
0.000567548
0.000544982
0.00051966
0.000493739
0.000469106
0.000447089
0.000428385
0.000413147
0.000401157
0.000391996
0.000385178
0.000380231
0.000376735
0.000374335
0.000372745
0.000371739
0.00037115
0.000370855
0.000370764
0.000370814
0.000370953
0.000371143
0.00037135
0.000371545
0.000371699
0.000371789
0.000371795
0.000371702
0.00037153
0.000371289
0.00037099
0.000370646
0.000370264
0.000369852
0.00036941
0.000368939
0.000368432
0.000367884
0.000367294
0.000366668
0.000366015
0.000365348
0.000364679
0.000364014
0.000363356
0.000362705
0.000362055
0.000361396
0.000360716
0.000360007
0.000359271
0.000358515
0.000357752
0.00035699
0.000356234
0.000355481
0.000354725
0.000353956
0.000353157
0.000352306
0.00035138
0.000350337
0.000349167
0.00034787
0.000346439
0.000344871
0.000343208
0.000341586
0.000340237
0.000339286
0.000338406
0.000162473
0.000326207
0.00046106
0.000558369
0.000622599
0.000659254
0.000674637
0.00067481
0.000666915
0.00065745
0.000650762
0.000648574
0.00065036
0.00065428
0.000658257
0.00066081
0.000661503
0.000660991
0.000660783
0.000662845
0.000669189
0.000681563
0.000701265
0.000729075
0.000765247
0.000809544
0.000861303
0.000919515
0.00098294
0.00105021
0.00111993
0.00119079
0.00126162
0.00133143
0.00139947
0.00146517
0.00152822
0.00158845
0.00164586
0.00170056
0.00175273
0.00180261
0.00185045
0.0018965
0.00194098
0.00198405
0.00202584
0.0020664
0.00210589
0.00214513
0.00218435
0.00222355
0.00226264
0.00230146
0.00233982
0.00237751
0.00241428
0.00244989
0.00248408
0.00251655
0.00254702
0.0025752
0.00260077
0.00262343
0.00264288
0.00265881
0.00267092
0.00267894
0.00268261
0.00268169
0.00267599
0.00266533
0.0026496
0.00262869
0.00260257
0.00257118
0.00253452
0.00249259
0.00244545
0.0023943
0.00233969
0.002282
0.00222157
0.00215872
0.00209374
0.00202694
0.00195858
0.00188889
0.00181809
0.00174634
0.00167374
0.00160019
0.0015253
0.00144814
0.00136983
0.0012914
0.00121397
0.00113879
0.00106711
0.0010001
0.000938817
0.00088434
0.000837912
0.000800496
0.000772025
0.000751059
0.000734429
0.000718436
0.00070026
0.000678539
0.000653303
0.000625602
0.00059702
0.000569208
0.000543532
0.000520896
0.000501708
0.000485969
0.000473414
0.000463632
0.000456172
0.000450592
0.000446498
0.000443552
0.000441478
0.000440057
0.000439122
0.000438543
0.000438224
0.000438089
0.000438078
0.000438141
0.000438236
0.000438325
0.000438375
0.00043836
0.000438261
0.000438084
0.000437837
0.00043753
0.000437174
0.000436777
0.000436348
0.000435889
0.000435399
0.000434875
0.000434312
0.000433705
0.00043306
0.000432385
0.000431692
0.000430994
0.000430298
0.00042961
0.00042893
0.000428252
0.000427567
0.000426864
0.000426133
0.000425373
0.00042459
0.000423795
0.000422997
0.000422202
0.000421409
0.000420612
0.000419801
0.000418959
0.000418062
0.000417085
0.000415979
0.000414733
0.000413339
0.00041179
0.000410088
0.000408276
0.000406485
0.00040494
0.00040381
0.000403085
0.000185401
0.000370117
0.000524359
0.000635734
0.000708079
0.000748221
0.000763218
0.000761875
0.000752601
0.000741987
0.000733949
0.000729754
0.000728813
0.000729769
0.000731425
0.000733314
0.000735903
0.00074047
0.000748791
0.000762729
0.000783883
0.000813342
0.00085157
0.000898417
0.00095319
0.00101478
0.00108182
0.00115279
0.0012262
0.0013006
0.00137475
0.00144757
0.00151822
0.00158609
0.00165078
0.00171208
0.00176995
0.00182449
0.00187592
0.0019245
0.00197057
0.00201447
0.00205651
0.002097
0.00213618
0.00217424
0.00221129
0.00224738
0.00228268
0.00231785
0.00235307
0.00238836
0.0024236
0.00245864
0.0024933
0.00252735
0.00256058
0.00259273
0.00262354
0.00265275
0.00268008
0.00270524
0.00272794
0.00274789
0.00276479
0.00277835
0.00278827
0.00279429
0.00279613
0.00279358
0.00278642
0.00277449
0.00275766
0.00273586
0.00270904
0.0026772
0.00264038
0.00259864
0.00255216
0.00250206
0.00244893
0.0023931
0.0023349
0.00227461
0.00221251
0.00214884
0.00208381
0.00201758
0.00195027
0.00188197
0.00181269
0.00174234
0.00167061
0.00159678
0.00152136
0.00144516
0.00136911
0.00129429
0.00122185
0.00115299
0.0010889
0.00103077
0.000979731
0.000936587
0.000901309
0.00087275
0.00084862
0.000826168
0.000803051
0.00077785
0.000750183
0.00072056
0.000690076
0.000660062
0.000631764
0.000606129
0.000583713
0.000564699
0.000548984
0.000536278
0.0005262
0.000518341
0.000512307
0.000507741
0.000504337
0.000501837
0.000500036
0.000498769
0.000497905
0.000497342
0.000496996
0.000496799
0.000496693
0.000496628
0.000496563
0.000496464
0.000496304
0.000496079
0.00049579
0.000495442
0.000495047
0.000494612
0.000494145
0.00049365
0.000493127
0.000492571
0.00049198
0.000491349
0.000490681
0.000489983
0.000489265
0.000488539
0.000487813
0.000487094
0.000486383
0.000485677
0.000484966
0.000484241
0.000483492
0.000482715
0.000481913
0.000481097
0.000480274
0.000479451
0.000478629
0.000477803
0.000476963
0.000476094
0.00047517
0.000474166
0.000473034
0.000471758
0.000470327
0.000468736
0.000466988
0.000465125
0.000463264
0.000461611
0.000460352
0.000459649
0.000202474
0.000389216
0.000567566
0.000698613
0.000783469
0.000829443
0.000846824
0.000845894
0.000835809
0.000823495
0.00081308
0.00080616
0.00080271
0.000802136
0.000804076
0.000808806
0.000817274
0.000830881
0.000851134
0.000879291
0.000916103
0.000961693
0.00101557
0.00107672
0.0011438
0.00121526
0.00128953
0.00136509
0.00144059
0.00151487
0.00158697
0.00165617
0.00172196
0.00178402
0.00184221
0.00189656
0.0019472
0.00199439
0.00203845
0.00207974
0.00211866
0.00215557
0.00219085
0.00222479
0.00225766
0.00228964
0.00232084
0.00235131
0.00238118
0.00241102
0.00244099
0.0024711
0.00250123
0.00253123
0.00256091
0.00259008
0.0026185
0.00264596
0.0026722
0.00269699
0.00272008
0.00274121
0.00276012
0.00277655
0.00279023
0.00280088
0.00280824
0.00281205
0.00281204
0.002808
0.0027997
0.002787
0.00276975
0.00274787
0.00272134
0.00269017
0.00265442
0.00261421
0.00256976
0.00252223
0.0024722
0.00242
0.00236591
0.00231024
0.00225321
0.00219503
0.00213583
0.00207569
0.00201464
0.00195263
0.00188959
0.00182534
0.00175957
0.00169168
0.00162179
0.00155056
0.00147876
0.00140733
0.00133732
0.0012699
0.00120624
0.00114755
0.0010949
0.00104899
0.00100987
0.000976659
0.000947662
0.000920763
0.000894039
0.000866177
0.000836638
0.000805619
0.00077387
0.000742434
0.000712387
0.000684629
0.000659774
0.000638121
0.000619698
0.000604342
0.000591764
0.000581622
0.000573555
0.000567221
0.000562306
0.000558537
0.00055568
0.000553545
0.000551972
0.000550831
0.000550017
0.000549441
0.000549029
0.00054872
0.00054846
0.000548207
0.000547928
0.000547604
0.000547229
0.000546807
0.000546344
0.000545846
0.00054532
0.00054477
0.000544195
0.000543595
0.000542964
0.000542299
0.000541602
0.000540877
0.000540132
0.000539379
0.000538624
0.000537876
0.000537135
0.000536399
0.000535663
0.000534916
0.00053415
0.000533359
0.000532546
0.000531716
0.000530878
0.000530038
0.000529197
0.000528352
0.000527495
0.000526611
0.000525677
0.000524666
0.000523534
0.000522263
0.000520842
0.000519265
0.000517536
0.000515695
0.000513842
0.000512155
0.000510816
0.000510067
0.000198156
0.000346922
0.000576307
0.000742201
0.000845797
0.000901598
0.000923963
0.000925222
0.000915441
0.000902102
0.000889938
0.000881298
0.000876986
0.000877199
0.000882206
0.000892644
0.000909481
0.000933775
0.000966375
0.00100768
0.00105751
0.00111515
0.0011794
0.00124881
0.00132179
0.00139676
0.00147228
0.00154705
0.00162
0.00169025
0.00175716
0.00182027
0.00187929
0.00193413
0.00198481
0.00203149
0.00207442
0.00211395
0.00215045
0.00218434
0.00221603
0.00224592
0.00227439
0.00230174
0.00232823
0.00235403
0.00237926
0.00240395
0.00242822
0.00245254
0.00247706
0.00250175
0.00252649
0.00255113
0.00257549
0.00259935
0.00262253
0.0026448
0.00266595
0.00268578
0.00270408
0.00272064
0.00273524
0.00274766
0.00275768
0.00276506
0.00276957
0.00277096
0.002769
0.00276345
0.00275411
0.0027408
0.00272338
0.00270175
0.00267588
0.00264577
0.00261152
0.00257326
0.00253125
0.00248677
0.00244033
0.00239227
0.0023429
0.00229251
0.00224136
0.00218959
0.0021373
0.00208447
0.002031
0.00197675
0.00192149
0.00186493
0.00180672
0.00174628
0.00168345
0.00161876
0.00155289
0.00148664
0.00142099
0.00135704
0.00129593
0.00123882
0.00118671
0.00114028
0.00109961
0.00106407
0.00103235
0.00100278
0.0009738
0.00094423
0.000913497
0.000881631
0.000849154
0.00081689
0.000785758
0.000756581
0.000729976
0.000706304
0.000685689
0.000668066
0.000653242
0.000640948
0.000630882
0.000622734
0.00061621
0.000611037
0.000606976
0.000603816
0.000601381
0.00059952
0.000598105
0.00059703
0.000596205
0.000595555
0.000595016
0.000594536
0.000594075
0.000593597
0.000593093
0.00059256
0.000591999
0.000591414
0.000590809
0.000590188
0.00058955
0.000588892
0.000588213
0.000587508
0.000586777
0.000586023
0.000585253
0.000584474
0.000583694
0.00058292
0.000582153
0.000581392
0.000580634
0.000579869
0.00057909
0.000578291
0.000577473
0.00057664
0.000575797
0.000574951
0.000574103
0.000573252
0.00057239
0.000571504
0.000570575
0.000569576
0.000568467
0.00056723
0.000565854
0.000564334
0.000562674
0.000560909
0.000559121
0.000557459
0.000556087
0.000555274
3.63065e-05
0.000255697
0.000561544
0.00077419
0.000898442
0.000964595
0.000993157
0.000998244
0.000990479
0.000977801
0.000965621
0.000957148
0.00095404
0.000957168
0.000967171
0.000984708
0.00101042
0.00104477
0.00108783
0.00113919
0.00119796
0.00126288
0.00133245
0.0014051
0.00147928
0.00155358
0.00162678
0.00169784
0.00176594
0.00183046
0.00189096
0.00194716
0.00199896
0.00204639
0.00208958
0.00212878
0.00216433
0.0021966
0.00222602
0.00225302
0.00227805
0.0023015
0.00232375
0.00234511
0.00236581
0.00238603
0.00240587
0.00242535
0.00244454
0.00246386
0.00248339
0.00250308
0.00252281
0.0025424
0.00256166
0.0025804
0.00259841
0.00261551
0.00263152
0.00264628
0.00265961
0.00267136
0.00268138
0.00268952
0.00269559
0.00269943
0.00270083
0.0026996
0.00269551
0.00268834
0.00267788
0.00266392
0.00264631
0.00262491
0.00259965
0.00257053
0.00253763
0.0025011
0.00246126
0.0024195
0.00237626
0.00233189
0.00228679
0.00224131
0.00219572
0.00215019
0.00210477
0.00205936
0.00201378
0.00196772
0.00192083
0.00187266
0.00182275
0.00177051
0.00171556
0.0016583
0.0015993
0.00153928
0.00147914
0.00141991
0.00136271
0.00130862
0.00125859
0.00121328
0.0011728
0.00113669
0.00110393
0.00107319
0.00104315
0.00101278
0.000981536
0.000949347
0.000916593
0.000883947
0.000852202
0.000822114
0.000794282
0.0007691
0.000746752
0.000727251
0.00071048
0.000696241
0.000684292
0.000674369
0.00066621
0.000659562
0.000654191
0.000649886
0.000646461
0.000643749
0.00064161
0.000639922
0.000638579
0.000637494
0.000636591
0.000635811
0.000635102
0.000634419
0.000633742
0.000633062
0.000632375
0.000631682
0.000630982
0.000630277
0.000629566
0.000628846
0.000628114
0.000627366
0.000626601
0.000625819
0.000625027
0.000624228
0.00062343
0.000622637
0.000621852
0.000621075
0.000620302
0.000619527
0.000618743
0.000617945
0.000617132
0.000616305
0.00061547
0.000614632
0.000613791
0.000612947
0.000612095
0.000611223
0.000610314
0.000609342
0.000608276
0.000607097
0.000605795
0.000604364
0.000602809
0.000601157
0.000599475
0.000597883
0.000596524
0.000595655
3.96398e-05
0.000280009
0.000593131
0.000810406
0.000942702
0.00101711
0.00105282
0.00106358
0.00105995
0.00105013
0.0010401
0.00103384
0.00103373
0.00104115
0.00105692
0.00108149
0.00111506
0.00115745
0.00120806
0.00126592
0.00132972
0.00139795
0.00146907
0.00154157
0.00161406
0.00168535
0.00175443
0.00182048
0.00188287
0.00194116
0.00199506
0.00204444
0.00208929
0.00212974
0.00216601
0.00219841
0.00222731
0.00225314
0.00227634
0.00229738
0.00231669
0.00233468
0.00235171
0.00236807
0.002384
0.00239964
0.00241506
0.00243028
0.0024453
0.00246048
0.00247585
0.00249134
0.00250678
0.00252199
0.00253675
0.00255088
0.00256418
0.00257647
0.00258761
0.00259747
0.00260594
0.00261291
0.00261831
0.00262204
0.00262401
0.00262411
0.00262221
0.00261814
0.00261173
0.00260276
0.00259102
0.00257627
0.0025583
0.00253694
0.00251205
0.00248358
0.00245157
0.00241619
0.00237786
0.00233799
0.00229693
0.00225515
0.00221316
0.0021714
0.00213026
0.00208995
0.00205052
0.00201186
0.00197365
0.00193548
0.00189681
0.00185706
0.00181561
0.00177179
0.00172503
0.00167561
0.00162397
0.00157077
0.00151682
0.0014631
0.00141067
0.00136058
0.00131371
0.0012707
0.00123169
0.00119635
0.00116385
0.00113311
0.00110301
0.00107266
0.00104151
0.00100946
0.000976814
0.000944122
0.000912096
0.000881438
0.000852737
0.000826408
0.000802681
0.000781625
0.000763185
0.000747221
0.000733544
0.000721938
0.000712177
0.000704037
0.000697304
0.000691774
0.000687261
0.000683596
0.000680628
0.000678225
0.000676271
0.000674664
0.000673322
0.000672171
0.000671156
0.000670216
0.000669324
0.000668466
0.000667629
0.000666809
0.000666002
0.000665205
0.000664415
0.00066363
0.000662844
0.000662054
0.000661258
0.000660454
0.000659645
0.000658834
0.000658026
0.000657226
0.000656434
0.000655652
0.000654876
0.000654102
0.000653323
0.000652537
0.000651739
0.000650932
0.000650118
0.0006493
0.000648481
0.00064766
0.000646832
0.000645988
0.000645117
0.000644188
0.00064318
0.000642078
0.00064087
0.000639551
0.000638124
0.00063661
0.000635063
0.000633574
0.000632265
0.000631368
0.00022512
0.000388232
0.000648325
0.000845452
0.000978058
0.00105916
0.00110268
0.00112067
0.00112315
0.00111831
0.00111246
0.00111013
0.00111426
0.00112655
0.00114788
0.00117848
0.00121811
0.00126608
0.00132137
0.00138265
0.00144844
0.0015172
0.00158745
0.00165781
0.00172709
0.00179427
0.00185851
0.00191918
0.00197579
0.00202802
0.0020757
0.00211878
0.00215734
0.00219158
0.00222177
0.00224827
0.00227149
0.00229189
0.00230994
0.00232609
0.0023408
0.00235447
0.00236742
0.00237995
0.00239224
0.00240442
0.00241652
0.00242851
0.00244035
0.00245234
0.00246447
0.00247663
0.00248862
0.00250023
0.00251125
0.00252146
0.00253068
0.00253876
0.00254554
0.00255094
0.00255489
0.00255735
0.00255829
0.0025577
0.00255557
0.00255187
0.00254654
0.0025395
0.00253059
0.00251965
0.00250645
0.00249072
0.00247221
0.00245066
0.00242584
0.00239763
0.00236599
0.00233103
0.00229348
0.00225441
0.00221426
0.00217361
0.00213314
0.00209348
0.00205515
0.00201851
0.00198366
0.00195047
0.00191857
0.00188743
0.00185634
0.00182455
0.00179126
0.00175569
0.00171711
0.00167561
0.00163153
0.00158542
0.00153804
0.00149031
0.00144322
0.00139777
0.00135482
0.00131495
0.00127835
0.00124476
0.00121352
0.0011837
0.00115435
0.00112467
0.00109414
0.00106265
0.00103042
0.000997942
0.000965869
0.00093487
0.000905531
0.000878292
0.000853426
0.00083105
0.000811159
0.000793661
0.000778412
0.000765236
0.000753943
0.000744341
0.000736236
0.000729443
0.000723784
0.000719095
0.000715221
0.000712024
0.000709381
0.000707182
0.000705333
0.000703754
0.000702379
0.000701138
0.000699997
0.000698931
0.000697924
0.000696961
0.000696036
0.000695142
0.000694272
0.000693421
0.000692584
0.000691756
0.000690933
0.000690112
0.000689294
0.00068848
0.000687673
0.000686876
0.000686089
0.000685314
0.000684547
0.000683786
0.000683025
0.000682261
0.000681491
0.000680714
0.000679934
0.000679151
0.000678367
0.000677582
0.000676793
0.000675992
0.000675169
0.000674298
0.000673363
0.00067235
0.00067125
0.000670056
0.00066877
0.000667409
0.000666012
0.00066465
0.000663421
0.000662527
4.43022e-05
0.000304987
0.000625718
0.000851355
0.000998056
0.00108956
0.00114249
0.00116917
0.00117944
0.00118134
0.00118132
0.00118419
0.00119322