/*--------------------------------*- C++ -*----------------------------------*\
  =========                 |
  \\      /  F ield         | OpenFOAM: The Open Source CFD Toolbox
   \\    /   O peration     | Website:  https://openfoam.org
    \\  /    A nd           | Version:  9
     \\/     M anipulation  |
\*---------------------------------------------------------------------------*/
FoamFile
{
    format      ascii;
    class       volScalarField;
    location    "0.04";
    object      p;
}
// * * * * * * * * * * * * * * * * * * * * * * * * * * * * * * * * * * * * * //

dimensions      [0 2 -2 0 0 0 0];

internalField   nonuniform List<scalar> 
12225
(
0.72688
0.396639
0.302792
0.294666
0.293333
0.296744
0.306516
0.320379
0.336839
0.355393
0.375545
0.396578
0.417601
0.437384
0.454347
0.463798
0.463308
0.349799
0.287046
0.309084
0.300558
0.297668
0.296645
0.299925
0.309449
0.32322
0.339752
0.35848
0.378865
0.400165
0.421489
0.441623
0.459134
0.469873
0.473893
0.461233
0.272948
0.323538
0.30743
0.300947
0.300411
0.303957
0.313263
0.326872
0.343438
0.362367
0.383089
0.404864
0.426854
0.447978
0.467176
0.48175
0.496957
0.535807
0.307122
0.329559
0.308663
0.302164
0.302604
0.306671
0.315969
0.329494
0.346088
0.365188
0.386246
0.40858
0.431467
0.454076
0.475866
0.496345
0.522629
0.572181
0.311644
0.322062
0.305966
0.301615
0.303069
0.307772
0.317201
0.330674
0.347242
0.366406
0.387676
0.410466
0.434196
0.458298
0.482713
0.508787
0.542826
0.592592
0.304613
0.312641
0.302357
0.299893
0.302181
0.307502
0.31707
0.330443
0.346876
0.365942
0.387225
0.410238
0.434532
0.459737
0.486101
0.515955
0.554272
0.601563
0.298129
0.304816
0.298386
0.297216
0.300162
0.305985
0.315609
0.328776
0.344917
0.363676
0.384703
0.407598
0.432001
0.457645
0.484879
0.516272
0.555449
0.597942
0.292812
0.297814
0.293853
0.293656
0.297089
0.303241
0.312788
0.325599
0.34125
0.359443
0.379881
0.402221
0.426139
0.451376
0.478213
0.508937
0.545963
0.582093
0.287436
0.290917
0.288693
0.289257
0.292991
0.299267
0.308566
0.320836
0.335762
0.353089
0.372549
0.393823
0.416574
0.440476
0.465624
0.493739
0.526319
0.555417
0.281567
0.283926
0.282929
0.284035
0.287871
0.294051
0.302905
0.314419
0.328354
0.344479
0.362535
0.382194
0.403064
0.424711
0.446987
0.470969
0.497544
0.519402
0.275163
0.276752
0.276553
0.277983
0.281729
0.28759
0.295783
0.306306
0.318965
0.333538
0.349752
0.367243
0.38555
0.404116
0.422548
0.441323
0.460954
0.475519
0.26877
0.269878
0.270103
0.271648
0.275145
0.280514
0.2879
0.297292
0.308517
0.321347
0.335486
0.350528
0.365946
0.381086
0.395364
0.408799
0.421659
0.429372
0.261966
0.262726
0.263177
0.264671
0.267768
0.272475
0.278878
0.28695
0.296524
0.307359
0.319127
0.33138
0.343533
0.354861
0.364655
0.372616
0.378736
0.379876
0.253552
0.254039
0.25454
0.255799
0.258271
0.26202
0.267083
0.273408
0.280821
0.289061
0.297763
0.306441
0.314462
0.321065
0.325472
0.327173
0.325949
0.319966
0.243142
0.243421
0.243765
0.244553
0.246118
0.248547
0.251837
0.255906
0.260566
0.265531
0.270409
0.274686
0.277723
0.278766
0.277048
0.271969
0.263195
0.249742
0.230317
0.230416
0.230385
0.230407
0.230722
0.231408
0.232434
0.233687
0.234964
0.235963
0.236283
0.235419
0.232764
0.22764
0.219362
0.207358
0.191263
0.170527
0.214705
0.214607
0.213977
0.212893
0.21156
0.210043
0.208291
0.206172
0.203478
0.199912
0.195095
0.188572
0.179821
0.168288
0.153432
0.134796
0.112066
0.0849143
0.196194
0.195844
0.194382
0.191827
0.188419
0.184242
0.179239
0.173282
0.166181
0.157676
0.147446
0.135121
0.120303
0.102587
0.0815994
0.0570309
0.0286651
-0.00368815
0.175425
0.174734
0.172176
0.167756
0.161836
0.15456
0.145902
0.135768
0.12402
0.110467
0.0948808
0.077009
0.0565951
0.0333977
0.00721358
-0.022106
-0.0546432
-0.0904312
0.15929
0.158338
0.154737
0.148586
0.140468
0.13062
0.119051
0.105716
0.0905331
0.0733743
0.0540804
0.0324813
0.00841115
-0.0182785
-0.047705
-0.0799478
-0.115046
-0.153004
0.14953
0.148428
0.143937
0.136344
0.12652
0.114778
0.101154
0.0856474
0.068221
0.0487839
0.0272196
0.00340827
-0.0227623
-0.0513879
-0.0825394
-0.11626
-0.152565
-0.19144
0.143763
0.142624
0.137212
0.12821
0.116895
0.103607
0.0883818
0.0712667
0.0522497
0.0312545
0.00818739
-0.01704
-0.0445055
-0.0742716
-0.10638
-0.140849
-0.177678
-0.216831
0.141014
0.140129
0.13372
0.123299
0.110694
0.0961513
0.0796964
0.0614317
0.0413481
0.0193594
-0.00462043
-0.030661
-0.0588204
-0.0891427
-0.121653
-0.156358
-0.193248
-0.232276
0.140408
0.140272
0.132698
0.12087
0.107193
0.0916113
0.0741994
0.0551383
0.0343856
0.0118214
-0.0126404
-0.0390597
-0.0674851
-0.0979528
-0.130482
-0.165073
-0.201716
-0.240357
0.14177
0.143079
0.133615
0.120317
0.105779
0.0892753
0.0710787
0.051484
0.0303559
0.00752273
-0.0171061
-0.0435863
-0.0719649
-0.102278
-0.134544
-0.168766
-0.204936
-0.242998
0.14538
0.149868
0.136555
0.12121
0.105846
0.0884489
0.0695615
0.0496371
0.0283616
0.00549651
-0.0190576
-0.045355
-0.0734462
-0.103372
-0.135158
-0.16881
-0.204328
-0.241656
0.143733
0.159512
0.141229
0.123051
0.106585
0.0882494
0.0688768
0.0488241
0.027618
0.00494535
-0.01932
-0.0452282
-0.0728339
-0.102186
-0.133316
-0.166238
-0.200965
-0.237446
0.11054
0.158154
0.143054
0.124364
0.106789
0.0876029
0.06809
0.0482967
0.0274479
0.00524389
-0.0184987
-0.043814
-0.0707566
-0.0993804
-0.129722
-0.161802
-0.195645
-0.231222
0.0951929
0.133859
0.135409
0.123326
0.10577
0.0859788
0.0667556
0.0475924
0.027437
0.00595311
-0.0170787
-0.0416566
-0.0678275
-0.0956445
-0.125147
-0.15636
-0.189308
-0.223971
0.527358
0.245553
0.147257
0.12509
0.106105
0.0856685
0.0666232
0.047961
0.0283855
0.00726136
-0.0153446
-0.0394614
-0.065137
-0.0924251
-0.121373
-0.152011
-0.184359
-0.218365
-0.776144
-0.768127
-0.786613
-0.83475
-0.902405
-0.978266
-1.05276
-1.11802
-1.16809
-1.20162
-1.22368
-1.23975
-1.2546
-1.2723
-1.29597
-1.3274
-1.36718
-1.41524
-1.47128
-1.53505
-1.6064
-1.68546
-1.77287
-1.87012
-1.97987
-2.10574
-2.25244
-2.42568
-2.63157
-2.87572
-3.16216
-3.49249
-3.86529
-4.27606
-4.71746
-5.17996
-5.65261
-6.12381
-6.58208
-7.01658
-7.41752
-7.7765
-8.08646
-8.34163
-8.5374
-8.67117
-8.74373
-8.75661
-8.70365
-8.57269
-8.35807
-8.0684
-7.70852
-7.28317
-6.79685
-6.25443
-5.6614
-5.02392
-4.34882
-3.64364
-2.9165
-2.17604
-1.43129
-0.691546
0.0337982
0.735418
1.40424
2.03163
2.60958
3.13089
3.58937
3.97996
4.29891
4.54383
4.71371
4.80916
4.83344
4.79331
4.69291
4.534
4.32329
4.06928
3.78103
3.46789
3.13937
2.80485
2.47337
2.15337
1.8526
1.57788
1.33599
1.13362
0.962633
0.821986
0.709454
0.623146
0.559411
0.513417
0.481344
0.459169
0.438997
0.404425
0.384622
0.403039
0.396579
0.374581
0.374374
0.370526
0.360151
0.346343
0.330594
0.313888
0.296973
0.28038
0.264479
0.249539
0.235751
0.223248
0.212115
0.202389
0.19407
0.187123
0.181484
0.177068
0.173773
0.171489
0.170102
0.169504
0.169588
0.170256
0.171414
0.172978
0.174866
0.177007
0.179333
0.181782
0.184303
0.186841
0.189361
0.191836
0.194242
0.196562
0.198786
0.200905
0.202912
0.204802
0.206572
0.208215
0.209731
0.211122
0.212393
0.213553
0.214613
0.215582
0.21647
0.217286
0.218035
0.218722
0.219345
0.219905
0.220403
0.220847
0.221244
0.221604
0.221935
0.222242
0.222532
0.222806
0.223064
0.223301
0.223501
0.22367
0.223803
0.223904
0.223984
0.224056
0.224171
0.224389
0.225133
0.225642
-0.88708
-0.88086
-0.912779
-0.972723
-1.0418
-1.10973
-1.17081
-1.22109
-1.25811
-1.27754
-1.27771
-1.26382
-1.24519
-1.23103
-1.22796
-1.23901
-1.26385
-1.30003
-1.345
-1.39686
-1.45475
-1.51983
-1.59542
-1.68458
-1.78991
-1.91635
-2.07028
-2.25896
-2.4897
-2.76851
-3.09869
-3.47984
-3.90759
-4.374
-4.86844
-5.37868
-5.89205
-6.39628
-6.88009
-7.33348
-7.74788
-8.11604
-8.43187
-8.69021
-8.88665
-9.01735
-9.07851
-9.06644
-8.98071
-8.82897
-8.61888
-8.34511
-8.00717
-7.60674
-7.14689
-6.63172
-6.06617
-5.45598
-4.80762
-4.12825
-3.42563
-2.70801
-1.98406
-1.2627
-0.552954
0.136176
0.795928
1.41794
1.99442
2.51834
2.98363
3.38526
3.71945
3.98368
4.17693
4.29971
4.35317
4.33638
4.25501
4.11868
3.9343
3.70929
3.45188
3.17074
2.87474
2.57266
2.27295
1.98342
1.71103
1.46142
1.23821
1.04312
0.886004
0.761705
0.667218
0.598373
0.550371
0.518244
0.49712
0.484417
0.480454
0.489648
0.484935
0.455035
0.444129
0.435967
0.409204
0.390427
0.374507
0.358247
0.341306
0.32386
0.306274
0.288953
0.272266
0.256518
0.24194
0.228695
0.216878
0.206532
0.197655
0.190209
0.184125
0.179316
0.175675
0.173087
0.171433
0.170599
0.170473
0.170954
0.171946
0.173362
0.17512
0.177149
0.179382
0.181754
0.184207
0.186696
0.189177
0.191618
0.193995
0.19629
0.198492
0.20059
0.202582
0.204462
0.206228
0.207874
0.209397
0.210796
0.212075
0.213241
0.214304
0.215275
0.216163
0.216979
0.217731
0.218424
0.21906
0.219636
0.220152
0.220612
0.221023
0.221395
0.221736
0.222054
0.222355
0.222644
0.222924
0.223188
0.223443
0.223658
0.223844
0.224002
0.224141
0.22427
0.224423
0.224597
0.225313
0.22531
-0.966271
-0.981554
-1.0171
-1.06796
-1.12268
-1.17318
-1.21497
-1.24526
-1.26243
-1.26705
-1.25891
-1.24185
-1.22162
-1.20406
-1.19356
-1.19238
-1.20115
-1.22001
-1.24951
-1.29114
-1.34754
-1.4226
-1.52166
-1.65057
-1.81431
-2.0167
-2.26037
-2.54643
-2.87423
-3.24133
-3.6435
-4.07505
-4.52918
-4.9984
-5.47497
-5.95116
-6.41952
-6.87296
-7.30481
-7.70885
-8.07927
-8.41068
-8.69808
-8.93694
-9.12323
-9.2533
-9.32309
-9.32816
-9.26787
-9.14129
-8.95055
-8.6959
-8.37827
-7.99948
-7.56234
-7.07054
-6.52866
-5.94211
-5.31702
-4.66023
-3.97919
-3.28185
-2.57656
-1.87195
-1.17675
-0.499696
0.1507
0.766287
1.33947
1.86336
2.33198
2.74038
3.0848
3.36275
3.57315
3.71643
3.79392
3.80697
3.75977
3.65888
3.51092
3.32291
3.10257
2.85813
2.59803
2.33065
2.06404
1.80564
1.56204
1.33868
1.13965
0.967851
0.826664
0.714653
0.629704
0.568541
0.527352
0.501921
0.487935
0.48226
0.482417
0.485377
0.478151
0.460866
0.451195
0.439183
0.418882
0.400363
0.382854
0.365119
0.346987
0.328587
0.310231
0.292288
0.275099
0.258947
0.244044
0.230534
0.2185
0.207973
0.19894
0.191356
0.185148
0.180224
0.176476
0.173788
0.172041
0.171119
0.170912
0.171316
0.172236
0.173584
0.17528
0.177251
0.179432
0.18176
0.184177
0.186634
0.189088
0.191506
0.193863
0.19614
0.198324
0.200408
0.202387
0.204257
0.206016
0.207659
0.209181
0.210581
0.211861
0.213028
0.214092
0.215063
0.21595
0.216766
0.217518
0.218214
0.218856
0.21944
0.219965
0.220435
0.220855
0.221235
0.221584
0.221909
0.222219
0.222519
0.222814
0.223101
0.223372
0.223615
0.223831
0.22402
0.224188
0.224339
0.224502
0.224627
0.225302
0.224696
-0.943523
-0.983479
-1.02202
-1.06558
-1.11079
-1.15188
-1.18487
-1.20762
-1.21926
-1.22029
-1.21273
-1.19997
-1.18603
-1.17473
-1.16921
-1.17216
-1.18628
-1.21487
-1.26209
-1.33275
-1.43171
-1.5633
-1.73085
-1.93628
-2.17988
-2.46038
-2.77523
-3.12103
-3.49392
-3.88988
-4.30488
-4.73489
-5.17581
-5.62339
-6.07308
-6.52006
-6.95919
-7.38507
-7.79216
-8.17483
-8.52751
-8.84473
-9.12124
-9.35213
-9.53289
-9.65952
-9.72841
-9.73667
-9.68252
-9.56545
-9.38504
-9.14123
-8.83486
-8.46762
-8.04208
-7.56172
-7.03087
-6.45471
-5.83916
-5.19088
-4.51711
-3.82566
-3.12472
-2.4228
-1.72854
-1.05057
-0.397367
0.222955
0.80279
1.33523
1.81424
2.23479
2.593
2.88624
3.11326
3.27415
3.37025
3.404
3.37958
3.30227
3.17815
3.01417
2.8179
2.59738
2.36082
2.11637
1.87185
1.63448
1.41064
1.20564
1.0235
0.867015
0.738116
0.636748
0.561136
0.508381
0.474943
0.456844
0.449931
0.450385
0.454596
0.458633
0.457392
0.450886
0.44347
0.431944
0.415945
0.398715
0.381204
0.363344
0.345146
0.326768
0.308501
0.290687
0.27365
0.257664
0.242933
0.229597
0.217734
0.207367
0.198482
0.191027
0.184929
0.180095
0.176418
0.173786
0.17208
0.171188
0.171
0.171415
0.172338
0.173684
0.175372
0.177332
0.179498
0.181809
0.18421
0.186651
0.18909
0.191494
0.193837
0.1961
0.198272
0.200344
0.202311
0.20417
0.205918
0.207551
0.209066
0.21046
0.211735
0.212899
0.21396
0.214927
0.215812
0.216625
0.217375
0.21807
0.21871
0.219294
0.219822
0.220295
0.220719
0.221104
0.221456
0.221786
0.2221
0.222405
0.222705
0.222997
0.223274
0.223527
0.223751
0.223946
0.224116
0.224262
0.224413
0.224494
0.225098
0.224085
-0.782028
-0.846605
-0.900285
-0.950434
-0.997254
-1.03775
-1.06987
-1.09301
-1.10762
-1.11525
-1.11833
-1.11984
-1.123
-1.13109
-1.14759
-1.17643
-1.22213
-1.28975
-1.38449
-1.51098
-1.67257
-1.87084
-2.10548
-2.37454
-2.67496
-3.00314
-3.35541
-3.72837
-4.11893
-4.52433
-4.94193
-5.36904
-5.80279
-6.23996
-6.67695
-7.10979
-7.53411
-7.94524
-8.33826
-8.70809
-9.04955
-9.35748
-9.62683
-9.85273
-10.0306
-10.1564
-10.2263
-10.2373
-10.1873
-10.075
-9.89941
-9.66052
-9.35898
-8.99632
-8.57496
-8.09822
-7.57028
-6.99614
-6.38162
-5.73322
-5.05811
-4.36399
-3.659
-2.9516
-2.25041
-1.56408
-0.90112
-0.269703
0.322477
0.868408
1.36192
1.79786
2.17219
2.48214
2.72626
2.90444
3.01786
3.06893
3.06186
3.00193
2.89517
2.74849
2.56942
2.36587
2.14596
1.91771
1.68882
1.46641
1.25675
1.06506
0.895343
0.750314
0.63157
0.539118
0.471575
0.426369
0.400158
0.389086
0.389055
0.396092
0.40649
0.416668
0.42305
0.424254
0.421198
0.413266
0.401059
0.386519
0.37077
0.354222
0.337122
0.319728
0.302355
0.285349
0.269037
0.253698
0.239549
0.226735
0.215338
0.205388
0.196869
0.189734
0.183912
0.17931
0.175829
0.173357
0.171784
0.170999
0.170898
0.171381
0.172357
0.173741
0.175457
0.177433
0.179607
0.181918
0.184314
0.186748
0.189177
0.191571
0.193902
0.196155
0.198314
0.200373
0.202326
0.204171
0.205904
0.207523
0.209024
0.210406
0.211673
0.212829
0.213883
0.214844
0.215724
0.216532
0.217277
0.217966
0.2186
0.21918
0.219706
0.220178
0.220603
0.220988
0.221341
0.221672
0.221987
0.222293
0.222591
0.22288
0.223154
0.223403
0.223622
0.22381
0.223969
0.224097
0.224227
0.224269
0.224798
0.223559
-0.509788
-0.5968
-0.678907
-0.747837
-0.80464
-0.85095
-0.888167
-0.917791
-0.942071
-0.963798
-0.985999
-1.01176
-1.04422
-1.08678
-1.14326
-1.21804
-1.31576
-1.44094
-1.59728
-1.7871
-2.01098
-2.26786
-2.55536
-2.87029
-3.20918
-3.56866
-3.9457
-4.33764
-4.74216
-5.15712
-5.58043
-6.00993
-6.44323
-6.87764
-7.31014
-7.73727
-8.15521
-8.55978
-8.94646
-9.31049
-9.64695
-9.95082
-10.2171
-10.4411
-10.618
-10.7437
-10.8144
-10.8269
-10.7789
-10.6685
-10.4947
-10.2572
-9.95663
-9.5943
-9.17256
-8.69461
-8.16452
-7.58721
-6.96838
-6.3145
-5.63266
-4.93053
-4.21622
-3.49821
-2.78516
-2.08575
-1.4086
-0.76199
-0.153747
0.408962
0.919805
1.37345
1.76571
2.09363
2.35564
2.55149
2.68226
2.75032
2.75976
2.71591
2.62486
2.4935
2.32932
2.14021
1.93424
1.71939
1.50334
1.29314
1.09506
0.914315
0.754901
0.619551
0.509733
0.425467
0.365525
0.327533
0.308296
0.304081
0.310877
0.324707
0.341819
0.358721
0.37232
0.380842
0.384061
0.381925
0.375092
0.364928
0.352538
0.338629
0.323701
0.308164
0.292412
0.276827
0.261762
0.247515
0.234321
0.222344
0.211679
0.202367
0.194403
0.187746
0.182332
0.178078
0.174888
0.172659
0.171287
0.170669
0.170703
0.171295
0.172357
0.173807
0.175572
0.177583
0.179777
0.182099
0.184498
0.186928
0.189351
0.191734
0.194055
0.196293
0.198438
0.200482
0.202418
0.204244
0.205959
0.207558
0.209042
0.210409
0.211661
0.212806
0.21385
0.214802
0.215674
0.216474
0.21721
0.21789
0.218516
0.219089
0.219608
0.220077
0.220499
0.220883
0.221235
0.221564
0.221877
0.222178
0.222471
0.222752
0.223015
0.223254
0.223461
0.223635
0.223776
0.223883
0.223988
0.223996
0.224453
0.223111
-0.201074
-0.305946
-0.419282
-0.510164
-0.578641
-0.632844
-0.67811
-0.718513
-0.757862
-0.799998
-0.848613
-0.907125
-0.978791
-1.06691
-1.17496
-1.30647
-1.46467
-1.65206
-1.86997
-2.11837
-2.39597
-2.7005
-3.02915
-3.37894
-3.747
-4.13074
-4.52789
-4.93643
-5.35457
-5.78061
-6.21282
-6.64933
-7.08802
-7.52647
-7.96188
-8.39103
-8.81034
-9.2158
-9.60311
-9.96765
-10.3046
-10.6092
-10.8763
-11.1012
-11.2794
-11.4064
-11.4785
-11.4924
-11.4456
-11.336
-11.1625
-10.9246
-10.6228
-10.2584
-9.83359
-9.35157
-8.8163
-8.23264
-7.60626
-6.94356
-6.25159
-5.53803
-4.81099
-4.07896
-3.35066
-2.63488
-1.94032
-1.27542
-0.648184
-0.0659554
0.464733
0.93835
1.35051
1.69811
1.9794
2.19403
2.34301
2.4287
2.4551
2.4275
2.35205
2.23561
2.08567
1.91012
1.71704
1.51441
1.30993
1.11069
0.922968
0.752027
0.601923
0.475419
0.373965
0.29762
0.24523
0.214546
0.202467
0.205341
0.219217
0.240126
0.264301
0.288321
0.309319
0.325436
0.335934
0.340677
0.340176
0.33546
0.327571
0.317372
0.305548
0.292656
0.279188
0.265586
0.252243
0.239491
0.22759
0.216729
0.207027
0.198545
0.191292
0.185244
0.180348
0.176531
0.173709
0.171788
0.170671
0.170263
0.170469
0.1712
0.172373
0.17391
0.17574
0.177797
0.180022
0.182362
0.184767
0.187196
0.189612
0.191985
0.194291
0.196514
0.198641
0.200665
0.20258
0.204384
0.206075
0.207652
0.209114
0.21046
0.211695
0.212824
0.213854
0.214795
0.215655
0.216444
0.21717
0.217839
0.218454
0.219016
0.219527
0.219989
0.220407
0.220786
0.221135
0.22146
0.221768
0.222062
0.222345
0.222614
0.222864
0.223087
0.223278
0.223433
0.223555
0.223639
0.223717
0.223695
0.224081
0.222719
0.0844382
-0.0112216
-0.149909
-0.267406
-0.351513
-0.417871
-0.476493
-0.533344
-0.593465
-0.661644
-0.742199
-0.838821
-0.954642
-1.09239
-1.25446
-1.44279
-1.65867
-1.9025
-2.17375
-2.47099
-2.79215
-3.13483
-3.49651
-3.87481
-4.26757
-4.67289
-5.0891
-5.51471
-5.94829
-6.3884
-6.8335
-7.28181
-7.7313
-8.17959
-8.62395
-9.06123
-9.48791
-9.90007
-10.2935
-10.6636
-11.0058
-11.3151
-11.5866
-11.8156
-11.9974
-12.1276
-12.2024
-12.2185
-12.1731
-12.0642
-11.8905
-11.6514
-11.3475
-10.9798
-10.5507
-10.0632
-9.52116
-8.92953
-8.29387
-7.62057
-6.91665
-6.18976
-5.44803
-4.69998
-3.95438
-3.22011
-2.50599
-1.82064
-1.17222
-0.568301
-0.0156394
0.480012
0.914054
1.28318
1.58548
1.82048
1.9891
2.09365
2.13808
2.12764
2.06846
1.96742
1.83199
1.67008
1.48979
1.29915
1.1059
0.917199
0.739413
0.577884
0.436757
0.318868
0.225707
0.15739
0.112806
0.089787
0.0852886
0.0957014
0.117107
0.145552
0.177279
0.208923
0.23771
0.26171
0.279909
0.292007
0.298343
0.299726
0.297113
0.291417
0.283433
0.273838
0.263217
0.252081
0.240872
0.229961
0.219645
0.210143
0.201603
0.194111
0.187702
0.182369
0.178078
0.174771
0.172376
0.170811
0.169991
0.169827
0.170234
0.171128
0.17243
0.174069
0.175975
0.178087
0.180349
0.18271
0.185125
0.187554
0.189962
0.192322
0.194612
0.196815
0.19892
0.20092
0.20281
0.204587
0.206251
0.2078
0.209236
0.210558
0.211772
0.212881
0.213895
0.21482
0.215665
0.216441
0.217153
0.217808
0.21841
0.21896
0.219461
0.219914
0.220324
0.220698
0.221041
0.22136
0.22166
0.221945
0.222216
0.222471
0.222703
0.222909
0.223081
0.223217
0.223316
0.223377
0.223428
0.223378
0.223693
0.222368
0.380703
0.225709
0.0824833
-0.0419516
-0.145923
-0.234876
-0.31601
-0.396253
-0.482197
-0.57987
-0.694358
-0.829601
-0.988435
-1.17276
-1.38367
-1.62154
-1.88603
-2.17612
-2.4902
-2.8263
-3.18225
-3.55587
-3.94514
-4.34824
-4.76356
-5.18971
-5.62542
-6.06947
-6.52064
-6.97761
-7.43885
-7.90262
-8.36686
-8.82919
-9.28684
-9.73668
-10.1752
-10.5984
-11.0022
-11.382
-11.7332
-12.0507
-12.3297
-12.5654
-12.753
-12.8883
-12.9673
-12.9865
-12.9433
-12.8355
-12.6618
-12.4217
-12.1154
-11.7443
-11.3106
-10.8172
-10.268
-9.66801
-9.02264
-8.33826
-7.62189
-6.88112
-6.12408
-5.3593
-4.59559
-3.84189
-3.10717
-2.40018
-1.72928
-1.10227
-0.526139
-0.00688909
0.450643
0.842934
1.16788
1.42485
1.61467
1.73958
1.8034
1.8114
1.76966
1.68501
1.56493
1.41734
1.25035
1.07206
0.89027
0.71225
0.544478
0.392425
0.260359
0.151224
0.0665925
0.00665014
-0.0296866
-0.0445256
-0.0408905
-0.0223789
0.00709971
0.0435951
0.0833616
0.123061
0.15995
0.192042
0.218165
0.237873
0.251349
0.259234
0.262395
0.261745
0.25814
0.252339
0.245008
0.236724
0.227985
0.219204
0.210716
0.202777
0.195567
0.189203
0.183748
0.179221
0.175607
0.172868
0.170948
0.169779
0.169287
0.169395
0.170024
0.171098
0.172544
0.174295
0.176286
0.17846
0.180763
0.183149
0.185574
0.188002
0.190402
0.192746
0.195016
0.197195
0.199274
0.201245
0.203105
0.204851
0.206483
0.208001
0.209406
0.210701
0.211889
0.212975
0.213968
0.214874
0.215702
0.216461
0.217157
0.217797
0.218383
0.21892
0.219408
0.21985
0.220252
0.220617
0.220953
0.221263
0.221554
0.221828
0.222085
0.222323
0.222539
0.222725
0.222877
0.222992
0.223069
0.223106
0.223129
0.223054
0.223297
0.222043
0.569811
0.379878
0.209572
0.0697479
-0.0442732
-0.144137
-0.24006
-0.3392
-0.448024
-0.572507
-0.717583
-0.886845
-1.08251
-1.30557
-1.55601
-1.83306
-2.13532
-2.46102
-2.80811
-3.17451
-3.55819
-3.95731
-4.37022
-4.79552
-5.23196
-5.67843
-6.13387
-6.59723
-7.06733
-7.54288
-8.02234
-8.50392
-8.98553
-9.46471
-9.93866
-10.4042
-10.8577
-11.2952
-11.7125
-12.105
-12.4679
-12.7963
-13.0852
-13.3297
-13.5251
-13.667
-13.7515
-13.7749
-13.7347
-13.6288
-13.4556
-13.2148
-12.9068
-12.5327
-12.0947
-11.5958
-11.0401
-10.4322
-9.7777
-9.08286
-8.35464
-7.60059
-6.8288
-6.04776
-5.26629
-4.49339
-3.73812
-3.00935
-2.31565
-1.66503
-1.06474
-0.521036
-0.039017
0.377552
0.726354
1.00658
1.21892
1.36551
1.45005
1.4778
1.45474
1.38765
1.28396
1.1516
0.998702
0.83341
0.663614
0.496697
0.339287
0.197014
0.0743082
-0.0257459
-0.101463
-0.152576
-0.180141
-0.186227
-0.173863
-0.146662
-0.108554
-0.0635024
-0.0152592
0.0328463
0.0780755
0.118403
0.152562
0.179992
0.200748
0.215344
0.224562
0.229292
0.230418
0.228757
0.225038
0.219897
0.213884
0.207457
0.200992
0.194781
0.189041
0.183921
0.179514
0.175868
0.172993
0.170871
0.169466
0.168726
0.168589
0.168989
0.169858
0.171126
0.172727
0.174599
0.176681
0.178922
0.18127
0.183681
0.186117
0.188544
0.190932
0.193258
0.195503
0.197654
0.199702
0.201639
0.203464
0.205174
0.20677
0.208252
0.209623
0.210886
0.212044
0.213104
0.214072
0.214957
0.215765
0.216504
0.217182
0.217804
0.218373
0.218894
0.219368
0.219798
0.220189
0.220545
0.220871
0.221172
0.221451
0.221712
0.221955
0.222176
0.222373
0.222539
0.222671
0.222765
0.22282
0.222834
0.222829
0.222728
0.222898
0.221734
0.555741
0.432141
0.252704
0.097325
-0.0244486
-0.134049
-0.24315
-0.359072
-0.488026
-0.635531
-0.806054
-1.00269
-1.22709
-1.47959
-1.75949
-2.06536
-2.39532
-2.74729
-3.11914
-3.50886
-3.91461
-4.33481
-4.76809
-5.21326
-5.66929
-6.1352
-6.61002
-7.09273
-7.58218
-8.07701
-8.57567
-9.07628
-9.57668
-10.0743
-10.5663
-11.0494
-11.5199
-11.9737
-12.4065
-12.8136
-13.1902
-13.5312
-13.8316
-14.0864
-14.2908
-14.4404
-14.5313
-14.5598
-14.5234
-14.4199
-14.2481
-14.0073
-13.6982
-13.3219
-12.8806
-12.3773
-11.8161
-11.2016
-10.5393
-9.83548
-9.09694
-8.33118
-7.54619
-6.75041
-5.95261
-5.16182
-4.3871
-3.63748
-2.92168
-2.24791
-1.62368
-1.05552
-0.548812
-0.107579
0.265627
0.569794
0.805424
0.974568
1.08081
1.1293
1.12592
1.07736
0.991009
0.874748
0.736724
0.585116
0.427896
0.272577
0.125951
-0.00616497
-0.119151
-0.209751
-0.276145
-0.31797
-0.336257
-0.333046
-0.311395
-0.274963
-0.227722
-0.173674
-0.116593
-0.0598159
-0.00608718
0.0425419
0.0847456
0.119887
0.147925
0.169279
0.184662
0.194933
0.200986
0.203673
0.203772
0.201969
0.198861
0.194951
0.190652
0.186296
0.182133
0.178349
0.175068
0.172366
0.170281
0.168819
0.167963
0.167678
0.167919
0.168629
0.169751
0.171225
0.17299
0.174989
0.177168
0.179478
0.181872
0.18431
0.186756
0.189179
0.191553
0.193857
0.196074
0.198192
0.200203
0.202102
0.203887
0.205556
0.207111
0.208554
0.209887
0.211113
0.212238
0.213268
0.214208
0.215067
0.215852
0.216569
0.217226
0.217829
0.21838
0.218883
0.219341
0.219758
0.220136
0.220481
0.220796
0.221085
0.221353
0.2216
0.221827
0.222031
0.222209
0.222356
0.222468
0.222541
0.222574
0.222565
0.222532
0.222406
0.222503
0.221435
0.497915
0.385232
0.230981
0.0783593
-0.0555992
-0.18051
-0.305932
-0.439134
-0.586415
-0.753213
-0.943796
-1.16101
-1.40623
-1.67951
-1.9799
-2.30576
-2.6551
-3.0258
-3.41581
-3.82324
-4.24643
-4.68396
-5.13461
-5.59731
-6.07111
-6.55508
-7.04827
-7.54962
-8.05794
-8.57183
-9.08964
-9.60944
-10.1289
-10.6455
-11.1562
-11.6575
-12.1457
-12.6166
-13.0657
-13.4883
-13.8794
-14.2338
-14.5464
-14.8122
-15.0263
-15.1843
-15.2821
-15.3162
-15.2842
-15.1839
-15.0139
-14.7741
-14.4647
-14.0872
-13.6438
-13.1376
-12.5724
-11.953
-11.2849
-10.5741
-9.82746
-9.0523
-8.25649
-7.44836
-6.63659
-5.83014
-5.03811
-4.26955
-3.53333
-2.83786
-2.19088
-1.59921
-1.0685
-0.60307
-0.205722
0.122303
0.381298
0.573164
0.701481
0.771177
0.787988
0.758516
0.690079
0.590502
0.467907
0.330493
0.186307
0.0429864
-0.0925054
-0.214148
-0.317112
-0.397949
-0.454684
-0.486848
-0.495449
-0.482505
-0.451126
-0.405038
-0.348281
-0.284917
-0.218757
-0.15316
-0.0908797
-0.0339831
0.0161733
0.0589049
0.0941091
0.122138
0.143652
0.159483
0.170523
0.177646
0.181664
0.183307
0.18321
0.181916
0.179878
0.177462
0.174954
0.172573
0.170476
0.168769
0.167516
0.166747
0.166468
0.166662
0.167298
0.168333
0.169721
0.171408
0.173344
0.175475
0.177754
0.180135
0.182576
0.18504
0.187494
0.189911
0.192268
0.194545
0.196729
0.198809
0.200778
0.202633
0.204372
0.205996
0.207505
0.208904
0.210194
0.211381
0.212469
0.213465
0.214374
0.215204
0.215962
0.216656
0.21729
0.21787
0.218401
0.218886
0.219328
0.219729
0.220094
0.220425
0.220728
0.221005
0.221259
0.221492
0.221703
0.22189
0.222049
0.222177
0.222269
0.222322
0.222334
0.222302
0.222242
0.222091
0.222117
0.221142
0.401056
0.267715
0.120548
-0.0233995
-0.157132
-0.287401
-0.421846
-0.566469
-0.726659
-0.907193
-1.11184
-1.34311
-1.60219
-1.88906
-2.20277
-2.54172
-2.904
-3.2876
-3.69061
-4.11126
-4.54803
-4.99958
-5.46477
-5.94257
-6.43204
-6.93224
-7.44218
-7.96076
-8.48671
-9.01857
-9.55459
-10.0927
-10.6306
-11.1656
-11.6943
-12.2135
-12.7191
-13.2068
-13.6721
-14.11
-14.5154
-14.8831
-15.2079
-15.4846
-15.7084
-15.8748
-15.9797
-16.0198
-15.9925
-15.8957
-15.7284
-15.4902
-15.1816
-14.8041
-14.3599
-13.8522
-13.285
-12.6627
-11.991
-11.2758
-10.5237
-9.74199
-8.93835
-8.12094
-7.2983
-6.47926
-5.67288
-4.88821
-4.1342
-3.41943
-2.75184
-2.13852
-1.58542
-1.09715
-0.676776
-0.32582
-0.0441884
0.169867
0.319922
0.410603
0.447509
0.437138
0.386712
0.303976
0.197007
0.0739999
-0.0569443
-0.188074
-0.312258
-0.423269
-0.516058
-0.586969
-0.633861
-0.656152
-0.654825
-0.631889
-0.590521
-0.534534
-0.468059
-0.395232
-0.319919
-0.245505
-0.174757
-0.109746
-0.0518395
-0.00174404
0.040403
0.0749123
0.102408
0.123698
0.139671
0.151213
0.159161
0.164276
0.167227
0.168594
0.168862
0.168432
0.167625
0.166689
0.165815
0.165136
0.164745
0.164696
0.165015
0.165705
0.16675
0.168122
0.169783
0.171691
0.173801
0.176068
0.178448
0.180899
0.183386
0.185873
0.188333
0.190741
0.193075
0.195322
0.197467
0.199503
0.201425
0.203231
0.204919
0.206492
0.207951
0.209301
0.210545
0.211688
0.212736
0.213694
0.214568
0.215367
0.216096
0.216762
0.217372
0.217929
0.218438
0.218903
0.219326
0.219711
0.220061
0.220379
0.220668
0.220932
0.221172
0.22139
0.221584
0.221754
0.221895
0.222004
0.222077
0.22211
0.222102
0.222048
0.22196
0.221784
0.221742
0.220854
0.217949
0.0946323
-0.0382096
-0.17193
-0.30092
-0.431261
-0.569362
-0.720109
-0.887978
-1.077
-1.29038
-1.53028
-1.79772
-2.09271
-2.41439
-2.76133
-3.13178
-3.52391
-3.93593
-4.36621
-4.8133
-5.27592
-5.75294
-6.24334
-6.74615
-7.26039
-7.785
-8.31881
-8.8605
-9.4085
-9.96098
-10.5158
-11.0705
-11.6222
-12.1676
-12.7032
-13.2248
-13.7281
-14.2083
-14.6604
-15.0792
-15.4593
-15.7955
-16.0825
-16.3155
-16.4899
-16.6018
-16.6477
-16.6253
-16.5326
-16.3684
-16.1326
-15.8258
-15.4496
-15.0062
-14.4988
-13.9314
-13.3086
-12.6358
-11.9189
-11.1645
-10.3795
-9.57147
-8.74836
-7.91852
-7.09061
-6.27355
-5.47635
-4.70799
-3.97712
-3.29191
-2.65966
-2.08662
-1.57768
-1.13622
-0.764055
-0.461302
-0.226199
-0.0554416
0.05536
0.111669
0.119867
0.0870632
0.0209022
-0.070614
-0.179316
-0.297075
-0.416048
-0.528951
-0.629359
-0.712002
-0.773014
-0.810078
-0.822495
-0.811222
-0.778264
-0.72688
-0.660986
-0.58482
-0.502604
-0.418266
-0.335224
-0.256253
-0.18342
-0.118086
-0.0609618
-0.0121966
0.028499
0.0617262
0.0882772
0.109034
0.124889
0.136696
0.145239
0.151217
0.155235
0.157811
0.159375
0.160281
0.160808
0.161173
0.161541
0.162028
0.162714
0.163644
0.164841
0.166304
0.168019
0.169959
0.172091
0.174377
0.176779
0.179259
0.181779
0.184308
0.186816
0.189277
0.19167
0.193978
0.196187
0.198288
0.200275
0.202144
0.203894
0.205526
0.207043
0.208448
0.209744
0.210938
0.212033
0.213036
0.213953
0.21479
0.215554
0.216252
0.216889
0.217471
0.218003
0.218489
0.218932
0.219337
0.219704
0.220038
0.220341
0.220616
0.220865
0.221091
0.221293
0.221472
0.221624
0.221748
0.221839
0.221893
0.221907
0.221879
0.221803
0.221689
0.221488
0.221381
0.220572
0.0057177
-0.0925719
-0.208835
-0.331808
-0.455159
-0.583281
-0.722065
-0.875596
-1.04757
-1.24138
-1.45973
-1.70447
-1.97652
-2.27592
-2.60194
-2.95337
-3.32865
-3.72613
-4.14415
-4.58119
-5.03586
-5.5069
-5.99318
-6.49366
-7.00733
-7.53313
-8.06997
-8.61659
-9.17158
-9.73329
-10.2998
-10.8689
-11.438
-12.0041
-12.5639
-13.1136
-13.6491
-14.1659
-14.6591
-15.1235
-15.5539
-15.9448
-16.291
-16.5872
-16.8284
-17.0102
-17.1286
-17.1802
-17.1629
-17.0744
-16.914
-16.6815
-16.3777
-16.004
-15.5631
-15.0579
-14.4926
-13.8718
-13.2007
-12.4852
-11.7316
-10.9468
-10.138
-9.3131
-8.48006
-7.64737
-6.82375
-6.01811
-5.23937
-4.49626
-3.79705
-3.14928
-2.55943
-2.03273
-1.57286
-1.18195
-0.860144
-0.605837
-0.416069
-0.286627
-0.212176
-0.186464
-0.202512
-0.252794
-0.3294
-0.424218
-0.529119
-0.636197
-0.738043
-0.828055
-0.900755
-0.952075
-0.979526
-0.982289
-0.961302
-0.918557
-0.857402
-0.781868
-0.696303
-0.605024
-0.512024
-0.420749
-0.33398
-0.25377
-0.181464
-0.117757
-0.0627957
-0.0162981
0.0223252
0.053855
0.0791668
0.0991555
0.114684
0.126552
0.135478
0.142093
0.146938
0.150472
0.153075
0.155054
0.156656
0.15807
0.159438
0.160861
0.162406
0.164113
0.165996
0.168055
0.170274
0.172628
0.175089
0.177624
0.180199
0.182785
0.185351
0.187873
0.19033
0.192702
0.194976
0.197142
0.199192
0.201123
0.202932
0.204621
0.206192
0.207647
0.208992
0.210231
0.211369
0.212413
0.213369
0.214241
0.215038
0.215764
0.216427
0.217033
0.217586
0.218092
0.218553
0.218974
0.219358
0.219707
0.220024
0.220311
0.220571
0.220805
0.221016
0.221203
0.221366
0.221502
0.221609
0.221682
0.221719
0.221715
0.221667
0.22157
0.221429
0.221205
0.221037
0.220295
-0.196407
-0.281544
-0.381449
-0.488738
-0.602469
-0.726547
-0.864118
-1.01837
-1.19237
-1.38886
-1.61003
-1.85745
-2.13189
-2.43344
-2.76155