/*--------------------------------*- C++ -*----------------------------------*\
  =========                 |
  \\      /  F ield         | OpenFOAM: The Open Source CFD Toolbox
   \\    /   O peration     | Website:  https://openfoam.org
    \\  /    A nd           | Version:  9
     \\/     M anipulation  |
\*---------------------------------------------------------------------------*/
FoamFile
{
    format      ascii;
    class       surfaceScalarField;
    location    "0.04";
    object      phi;
}
// * * * * * * * * * * * * * * * * * * * * * * * * * * * * * * * * * * * * * //

dimensions      [0 3 -1 0 0 0 0];

internalField   nonuniform List<scalar> 
24170
(
3.06382e-07
1.24587e-08
2.64947e-07
4.14344e-08
2.32557e-07
3.23905e-08
2.06278e-07
2.62784e-08
1.85277e-07
2.10016e-08
1.68453e-07
1.68243e-08
1.53719e-07
1.47334e-08
1.3972e-07
1.39994e-08
1.25884e-07
1.38359e-08
1.12087e-07
1.37968e-08
9.84404e-08
1.36467e-08
8.52244e-08
1.3216e-08
7.29323e-08
1.22921e-08
6.25095e-08
1.04229e-08
5.61906e-08
6.31882e-09
6.24082e-08
-6.2176e-09
9.73061e-08
-3.48978e-08
8.14317e-08
1.58744e-08
3.4485e-07
9.33335e-09
3.35851e-07
5.04333e-08
3.19639e-07
4.86034e-08
3.02215e-07
4.37015e-08
2.85071e-07
3.81462e-08
2.68584e-07
3.3311e-08
2.52632e-07
3.06858e-08
2.36718e-07
2.99135e-08
2.20389e-07
3.01648e-08
2.03372e-07
3.08138e-08
1.85604e-07
3.14141e-08
1.67253e-07
3.1567e-08
1.48747e-07
3.07979e-08
1.3098e-07
2.81898e-08
1.15808e-07
2.14916e-08
1.07856e-07
1.73387e-09
9.95582e-08
-2.65998e-08
1.42899e-07
3.80913e-08
3.64285e-07
1.13e-08
3.65304e-07
4.94147e-08
3.58618e-07
5.5289e-08
3.48149e-07
5.4171e-08
3.35341e-07
5.09535e-08
3.21213e-07
4.74389e-08
3.0637e-07
4.55287e-08
2.90864e-07
4.54203e-08
2.74488e-07
4.65407e-08
2.57007e-07
4.82941e-08
2.38278e-07
5.0144e-08
2.18309e-07
5.15353e-08
1.97308e-07
5.17995e-08
1.75749e-07
4.97486e-08
1.5459e-07
4.26506e-08
1.33842e-07
2.24815e-08
1.02642e-07
4.60026e-09
1.83108e-07
6.24325e-08
3.91471e-07
1.23683e-08
3.93475e-07
4.74106e-08
3.90497e-07
5.82671e-08
3.83672e-07
6.09958e-08
3.73892e-07
6.07334e-08
3.61948e-07
5.93826e-08
3.48502e-07
5.89744e-08
3.33818e-07
6.01053e-08
3.17857e-07
6.25013e-08
3.00455e-07
6.56957e-08
2.81441e-07
6.91587e-08
2.60706e-07
7.22703e-08
2.38241e-07
7.42636e-08
2.14134e-07
7.38559e-08
1.88456e-07
6.83284e-08
1.58771e-07
5.21665e-08
1.17953e-07
4.54185e-08
2.12651e-07
8.84107e-08
4.20446e-07
1.26347e-08
4.22378e-07
4.54785e-08
4.21074e-07
5.95713e-08
4.16396e-07
6.56741e-08
4.08751e-07
6.83778e-08
3.98615e-07
6.95188e-08
3.86521e-07
7.1069e-08
3.72772e-07
7.38542e-08
3.57414e-07
7.78586e-08
3.40336e-07
8.27738e-08
3.21357e-07
8.81379e-08
3.00284e-07
9.33432e-08
2.76933e-07
9.76149e-08
2.51077e-07
9.97116e-08
2.22147e-07
9.72591e-08
1.87048e-07
8.72648e-08
1.42151e-07
9.03162e-08
2.37269e-07
1.17533e-07
4.50871e-07
1.26729e-08
4.5265e-07
4.36991e-08
4.52189e-07
6.00321e-08
4.48851e-07
6.90121e-08
4.42727e-07
7.45021e-08
4.34038e-07
7.82077e-08
4.23158e-07
8.19492e-08
4.10352e-07
8.66604e-08
3.95688e-07
9.25218e-08
3.79084e-07
9.93785e-08
3.60355e-07
1.06867e-07
3.39253e-07
1.14445e-07
3.15473e-07
1.21395e-07
2.88582e-07
1.26602e-07
2.57658e-07
1.28183e-07
2.19805e-07
1.25118e-07
1.7393e-07
1.3619e-07
2.59815e-07
1.51384e-07
4.83232e-07
1.27125e-08
4.84794e-07
4.21378e-08
4.84723e-07
6.01031e-08
4.82217e-07
7.15176e-08
4.7717e-07
7.95489e-08
4.69624e-07
8.57543e-08
4.59803e-07
9.17702e-08
4.47903e-07
9.85598e-08
4.33982e-07
1.06443e-07
4.17964e-07
1.15396e-07
3.99667e-07
1.25164e-07
3.78816e-07
1.35296e-07
3.55045e-07
1.45166e-07
3.27822e-07
1.53825e-07
2.96121e-07
1.59883e-07
2.57628e-07
1.63612e-07
2.13032e-07
1.80787e-07
2.81815e-07
1.91033e-07
5.17877e-07
1.27931e-08
5.19139e-07
4.08764e-08
5.19181e-07
6.00606e-08
5.17173e-07
7.35255e-08
5.12886e-07
8.38361e-08
5.06239e-07
9.24018e-08
4.97335e-07
1.00674e-07
4.86296e-07
1.09598e-07
4.73152e-07
1.19587e-07
4.57826e-07
1.30722e-07
4.40143e-07
1.42848e-07
4.19829e-07
1.5561e-07
3.96512e-07
1.68483e-07
3.6966e-07
1.80678e-07
3.38328e-07
1.91215e-07
3.00919e-07
2.0102e-07
2.59204e-07
2.22502e-07
3.0382e-07
2.37198e-07
5.55016e-07
1.2911e-08
5.55932e-07
3.996e-08
5.55924e-07
6.00692e-08
5.54193e-07
7.52557e-08
5.50443e-07
8.75869e-08
5.44512e-07
9.83329e-08
5.36412e-07
1.08773e-07
5.26199e-07
1.19812e-07
5.13871e-07
1.31914e-07
4.99352e-07
1.45241e-07
4.82481e-07
1.59719e-07
4.63011e-07
1.75079e-07
4.40613e-07
1.90881e-07
4.14824e-07
2.06467e-07
3.84897e-07
2.21142e-07
3.49919e-07
2.35998e-07
3.12153e-07
2.60268e-07
3.2559e-07
2.90383e-07
5.94828e-07
1.30608e-08
5.95402e-07
3.9386e-08
5.95255e-07
6.02161e-08
5.93665e-07
7.68454e-08
5.90303e-07
9.09491e-08
5.84964e-07
1.03672e-07
5.77593e-07
1.16143e-07
5.68194e-07
1.29211e-07
5.56744e-07
1.43365e-07
5.43167e-07
1.58818e-07
5.2733e-07
1.75556e-07
5.09038e-07
1.93372e-07
4.88033e-07
2.11886e-07
4.63972e-07
2.30528e-07
4.36351e-07
2.48764e-07
4.04806e-07
2.67543e-07
3.71686e-07
2.93388e-07
3.46357e-07
3.50919e-07
6.37508e-07
1.32337e-08
6.37775e-07
3.91194e-08
6.37462e-07
6.05285e-08
6.35944e-07
7.83644e-08
6.32887e-07
9.40052e-08
6.28071e-07
1.08488e-07
6.214e-07
1.22814e-07
6.12841e-07
1.3777e-07
6.02358e-07
1.53848e-07
5.89889e-07
1.71286e-07
5.7534e-07
1.90105e-07
5.58578e-07
2.10134e-07
5.39444e-07
2.3102e-07
5.17731e-07
2.52241e-07
4.93173e-07
2.73322e-07
4.65795e-07
2.94922e-07
4.3777e-07
3.21413e-07
3.65137e-07
4.1899e-07
5.73932e-07
1.3385e-08
5.73964e-07
3.90873e-08
5.73593e-07
6.08995e-08
5.72359e-07
7.95982e-08
5.69998e-07
9.63665e-08
5.66326e-07
1.12161e-07
5.61245e-07
1.27895e-07
5.54714e-07
1.44301e-07
5.46704e-07
1.61859e-07
5.37178e-07
1.80812e-07
5.26095e-07
2.01189e-07
5.13399e-07
2.22829e-07
4.99033e-07
2.45386e-07
4.82927e-07
2.68347e-07
4.65019e-07
2.91229e-07
4.45538e-07
3.14403e-07
4.26087e-07
3.40864e-07
3.78583e-07
4.1264e-07
6.99639e-07
1.35614e-08
6.9954e-07
3.91864e-08
6.99036e-07
6.14038e-08
6.97709e-07
8.0925e-08
6.95288e-07
9.87878e-08
6.91571e-07
1.15877e-07
6.86447e-07
1.33019e-07
6.79861e-07
1.50887e-07
6.71789e-07
1.69932e-07
6.62216e-07
1.90384e-07
6.5114e-07
2.12266e-07
6.38564e-07
2.35405e-07
6.24508e-07
2.59442e-07
6.08999e-07
2.83856e-07
5.92102e-07
3.08126e-07
5.74191e-07
3.32315e-07
5.56851e-07
3.58204e-07
3.90544e-07
5.4489e-07
8.5291e-07
1.37359e-08
8.52726e-07
3.93708e-08
8.52172e-07
6.19578e-08
8.50886e-07
8.22111e-08
8.48608e-07
1.01065e-07
8.45141e-07
1.19345e-07
8.40366e-07
1.37794e-07
8.34232e-07
1.5702e-07
8.26734e-07
1.7743e-07
8.17896e-07
1.99222e-07
8.07774e-07
2.22388e-07
7.96453e-07
2.46726e-07
7.84045e-07
2.7185e-07
7.70685e-07
2.97216e-07
7.56558e-07
3.22253e-07
7.42127e-07
3.46746e-07
7.28808e-07
3.71522e-07
3.99107e-07
7.20245e-07
1.03981e-06
1.38523e-08
1.03969e-06
3.94882e-08
1.03932e-06
6.23232e-08
1.0384e-06
8.31287e-08
1.0367e-06
1.02767e-07
1.03404e-06
1.22007e-07
1.03032e-06
1.4152e-07
1.0255e-06
1.61837e-07
1.01962e-06
1.83309e-07
1.01276e-06
2.0608e-07
1.00505e-06
2.30095e-07
9.9667e-07
2.55108e-07
9.87823e-07
2.80697e-07
9.78738e-07
3.06301e-07
9.6968e-07
3.31311e-07
9.61114e-07
3.55313e-07
9.54163e-07
3.78473e-07
4.01881e-07
9.5139e-07
1.26773e-06
1.38031e-08
1.26801e-06
3.92083e-08
1.26834e-06
6.1996e-08
1.26845e-06
8.30103e-08
1.26816e-06
1.0306e-07
1.26731e-06
1.22854e-07
1.26584e-06
1.42989e-07
1.26376e-06
1.63919e-07
1.26115e-06
1.8592e-07
1.25816e-06
2.09071e-07
1.255e-06
2.33259e-07
1.25192e-06
2.58191e-07
1.24919e-06
2.83419e-07
1.24711e-06
3.08383e-07
1.24595e-06
3.32473e-07
1.24609e-06
3.55175e-07
1.24828e-06
3.76275e-07
3.96033e-07
1.25413e-06
1.54573e-06
1.33931e-08
1.547e-06
3.79392e-08
1.54893e-06
6.00652e-08
1.55127e-06
8.06637e-08
1.55384e-06
1.00491e-07
1.55652e-06
1.20178e-07
1.55927e-06
1.40239e-07
1.56215e-06
1.61042e-07
1.56528e-06
1.82783e-07
1.56888e-06
2.05471e-07
1.57321e-06
2.28936e-07
1.57855e-06
2.52852e-07
1.5852e-06
2.76768e-07
1.59343e-06
3.00149e-07
1.60347e-06
3.22433e-07
1.61554e-06
3.43104e-07
1.63002e-06
3.61796e-07
3.7838e-07
1.64767e-06
1.88486e-06
1.22929e-08
1.88807e-06
3.47282e-08
1.89308e-06
5.50613e-08
1.89956e-06
7.41855e-08
1.90727e-06
9.27757e-08
1.91609e-06
1.11358e-07
1.92599e-06
1.30342e-07
1.93703e-06
1.5e-07
1.94937e-06
1.70444e-07
1.96322e-06
1.9162e-07
1.97884e-06
2.13317e-07
1.99649e-06
2.352e-07
2.01642e-06
2.56839e-07
2.03881e-06
2.77755e-07
2.06378e-06
2.97464e-07
2.09137e-06
3.15518e-07
2.12161e-06
3.31553e-07
3.45332e-07
2.15466e-06
2.29866e-06
9.9683e-09
2.30524e-06
2.81439e-08
2.31548e-06
4.48212e-08
2.32883e-06
6.08377e-08
2.34489e-06
7.67198e-08
2.36341e-06
9.28311e-08
2.38432e-06
1.09437e-07
2.40763e-06
1.26693e-07
2.43345e-06
1.44623e-07
2.46194e-06
1.63122e-07
2.4933e-06
1.81965e-07
2.52767e-06
2.00829e-07
2.56517e-06
2.19336e-07
2.60584e-06
2.37084e-07
2.64962e-06
2.53683e-07
2.69635e-06
2.68788e-07
2.74579e-06
2.82116e-07
2.93466e-07
2.79766e-06
1.68343e-06
7.60898e-09
1.69007e-06
2.15061e-08
1.70032e-06
3.45716e-08
1.71355e-06
4.76034e-08
1.72933e-06
6.09425e-08
1.74739e-06
7.47741e-08
1.7676e-06
8.92255e-08
1.78995e-06
1.04345e-07
1.81448e-06
1.20091e-07
1.84127e-06
1.36327e-07
1.87041e-06
1.52831e-07
1.90193e-06
1.69306e-07
1.93585e-06
1.85412e-07
1.97213e-06
2.00804e-07
2.01066e-06
2.15155e-07
2.05127e-06
2.28184e-07
2.09371e-06
2.39671e-07
2.4946e-07
2.13772e-06
1.4659e-06
5.16106e-09
1.47291e-06
1.45057e-08
1.48362e-06
2.38547e-08
1.49726e-06
3.39681e-08
1.5133e-06
4.49018e-08
1.53145e-06
5.66239e-08
1.55157e-06
6.91069e-08
1.57363e-06
8.22812e-08
1.59768e-06
9.60372e-08
1.62379e-06
1.10218e-07
1.65201e-06
1.2461e-07
1.68238e-06
1.38943e-07
1.71487e-06
1.52921e-07
1.74943e-06
1.66244e-07
1.78595e-06
1.78637e-07
1.82426e-06
1.89868e-07
1.86417e-06
1.9976e-07
2.08196e-07
1.90544e-06
1.27635e-06
2.82724e-09
1.28334e-06
7.50845e-09
1.29394e-06
1.32569e-08
1.30717e-06
2.07442e-08
1.32248e-06
2.95896e-08
1.33958e-06
3.95261e-08
1.35832e-06
5.03585e-08
1.37872e-06
6.1881e-08
1.40085e-06
7.39158e-08
1.42477e-06
8.62933e-08
1.45057e-06
9.88151e-08
1.47826e-06
1.11246e-07
1.50785e-06
1.23331e-07
1.53928e-06
1.34817e-07
1.57244e-06
1.45473e-07
1.6072e-06
1.55108e-07
1.64338e-06
1.63584e-07
1.7081e-07
1.68077e-06
1.11109e-06
8.25205e-10
1.11786e-06
7.4176e-10
1.12798e-06
3.14325e-09
1.14029e-06
8.42604e-09
1.1543e-06
1.55846e-08
1.16969e-06
2.41334e-08
1.18636e-06
3.36868e-08
1.20437e-06
4.38779e-08
1.22382e-06
5.44651e-08
1.24483e-06
6.52778e-08
1.2675e-06
7.61441e-08
1.29188e-06
8.68694e-08
1.31797e-06
9.72446e-08
1.34572e-06
1.07063e-07
1.37505e-06
1.1614e-07
1.40584e-06
1.24323e-07
1.43792e-06
1.31504e-07
1.37619e-07
1.47111e-06
9.66997e-07
-6.49962e-10
9.73412e-07
-5.67344e-09
9.82823e-07
-6.2676e-09
9.93939e-07
-2.69059e-09
1.00629e-06
3.22983e-09
1.01959e-06
1.0835e-08
1.03379e-06
1.94934e-08
1.04901e-06
2.86532e-08
1.06545e-06
3.80264e-08
1.08327e-06
4.74621e-08
1.10258e-06
5.68308e-08
1.12346e-06
6.59884e-08
1.14593e-06
7.47785e-08
1.16994e-06
8.30451e-08
1.19544e-06
9.06481e-08
1.22228e-06
9.7474e-08
1.25034e-06
1.03445e-07
1.08515e-07
1.27945e-06
8.41291e-07
-1.40588e-09
8.47385e-07
-1.17674e-08
8.5593e-07
-1.4812e-08
8.65603e-07
-1.23641e-08
8.76014e-07
-7.18129e-09
8.86899e-07
-4.95546e-11
8.98329e-07
8.06343e-09
9.10565e-07
1.64169e-08
9.23867e-07
2.47238e-08
9.38445e-07
3.28846e-08
9.5444e-07
4.08353e-08
9.71933e-07
4.84961e-08
9.90942e-07
5.57694e-08
1.01144e-06
6.25519e-08
1.03334e-06
6.8748e-08
1.05653e-06
7.42805e-08
1.08087e-06
7.90996e-08
8.31773e-08
1.10621e-06
7.31319e-07
-9.96456e-10
7.37416e-07
-1.78645e-08
7.44921e-07
-2.23169e-08
7.52809e-07
-2.02519e-08
7.60864e-07
-1.52367e-08
7.68958e-07
-8.14353e-09
7.77358e-07
-3.36175e-10
7.86486e-07
7.2891e-09
7.96668e-07
1.45411e-08
8.08141e-07
2.14121e-08
8.21042e-07
2.79342e-08
8.35435e-07
3.4103e-08
8.51323e-07
3.98812e-08
8.6866e-07
4.52149e-08
8.87359e-07
5.00488e-08
9.07303e-07
5.43365e-08
9.2835e-07
5.80531e-08
6.11859e-08
9.50341e-07
6.34377e-07
1.63281e-09
6.41211e-07
-2.46981e-08
6.47298e-07
-2.84037e-08
6.52787e-07
-2.57415e-08
6.5783e-07
-2.02796e-08
6.62617e-07
-1.29303e-08
6.67729e-07
-5.44858e-09
6.73709e-07
1.3098e-09
6.80915e-07
7.33484e-09
6.8956e-07
1.27672e-08
6.99727e-07
1.77667e-08
7.1143e-07
2.24005e-08
7.24631e-07
2.66804e-08
7.39256e-07
3.059e-08
7.55201e-07
3.41031e-08
7.72342e-07
3.71956e-08
7.90535e-07
3.98599e-08
4.21009e-08
8.0962e-07
5.49301e-07
6.87865e-09
5.57059e-07
-3.24569e-08
5.60146e-07
-3.14907e-08
5.61822e-07
-2.74175e-08
5.62715e-07
-2.11718e-08
5.63504e-07
-1.37197e-08
5.65074e-07
-7.01845e-09
5.67989e-07
-1.6048e-09
5.72498e-07
2.82519e-09
5.7872e-07
6.5455e-09
5.86603e-07
9.88324e-09
5.96074e-07
1.29301e-08
6.07038e-07
1.57163e-08
6.19388e-07
1.82394e-08
6.33004e-07
2.04877e-08
6.4775e-07
2.24499e-08
6.63487e-07
2.41225e-08
2.55253e-08
6.80063e-07
4.85562e-07
4.07786e-09
4.84753e-07
-3.16487e-08
4.79133e-07
-2.58704e-08
4.72576e-07
-2.08601e-08
4.66881e-07
-1.54773e-08
4.62666e-07
-9.50458e-09
4.60549e-07
-4.90193e-09
4.6065e-07
-1.70565e-09
4.62896e-07
5.79565e-10
4.67162e-07
2.27973e-09
4.73182e-07
3.86324e-09
4.80788e-07
5.32395e-09
4.89841e-07
6.66301e-09
5.00211e-07
7.86902e-09
5.11765e-07
8.93431e-09
5.24359e-07
9.85523e-09
5.37859e-07
1.06228e-08
1.12521e-08
5.52132e-07
4.24345e-07
3.92697e-07
3.66826e-07
3.45966e-07
3.30489e-07
3.20984e-07
3.16082e-07
3.14377e-07
3.14956e-07
3.17236e-07
3.21099e-07
3.26423e-07
3.33086e-07
3.40955e-07
3.4989e-07
3.59745e-07
3.70368e-07
3.8162e-07
1.03654e-07
-1.03654e-07
2.60854e-07
-1.57201e-07
4.22549e-07
-1.61695e-07
5.69994e-07
-1.47445e-07
6.9519e-07
-1.25197e-07
7.94578e-07
-9.93875e-08
8.66686e-07
-7.21087e-08
9.1111e-07
-4.44232e-08
9.28313e-07
-1.72038e-08
9.18405e-07
9.90841e-09
8.83641e-07
3.47643e-08
8.31393e-07
5.22478e-08
7.69659e-07
6.17335e-08
7.05479e-07
6.41802e-08
6.43683e-07
6.17961e-08
5.86179e-07
5.75042e-08
5.31887e-07
5.42923e-08
4.77435e-07
5.44517e-08
4.18207e-07
5.92278e-08
3.49199e-07
6.90079e-08
2.65529e-07
8.36704e-08
1.62808e-07
1.02721e-07
3.75682e-08
1.2524e-07
-1.13798e-07
1.51367e-07
-2.94737e-07
1.80939e-07
-5.06718e-07
2.11981e-07
-7.49478e-07
2.42761e-07
-1.02088e-06
2.71401e-07
-1.31701e-06
2.96135e-07
-1.6326e-06
3.15588e-07
-1.9615e-06
3.28897e-07
-2.29722e-06
3.35719e-07
-2.63339e-06
3.36175e-07
-2.96414e-06
3.30742e-07
-3.28428e-06
3.20144e-07
-3.58951e-06
3.05232e-07
-3.8764e-06
2.86893e-07
-4.14236e-06
2.65957e-07
-4.38553e-06
2.43168e-07
-4.60468e-06
2.19149e-07
-4.79906e-06
1.94385e-07
-4.96829e-06
1.69228e-07
-5.11221e-06
1.43915e-07
-5.23081e-06
1.18601e-07
-5.32418e-06
9.33768e-08
-5.39246e-06
6.8274e-08
-5.43575e-06
4.32958e-08
-5.4544e-06
1.86434e-08
-5.44932e-06
-5.07648e-09
-5.42468e-06
-2.46407e-08
-5.38223e-06
-4.24475e-08
-5.32304e-06
-5.91902e-08
-5.24774e-06
-7.53004e-08
-5.1567e-06
-9.10445e-08
-5.05018e-06
-1.06514e-07
-4.92846e-06
-1.21723e-07
-4.79181e-06
-1.36647e-07
-4.64058e-06
-1.51237e-07
-4.47514e-06
-1.65432e-07
-4.29598e-06
-1.7916e-07
-4.10364e-06
-1.92344e-07
-3.89874e-06
-2.04904e-07
-3.68198e-06
-2.16754e-07
-3.45417e-06
-2.27809e-07
-3.21619e-06
-2.3798e-07
-2.96901e-06
-2.4718e-07
-2.71369e-06
-2.55324e-07
-2.45136e-06
-2.62328e-07
-2.18325e-06
-2.68114e-07
-1.91064e-06
-2.72609e-07
-1.63489e-06
-2.75745e-07
-1.35743e-06
-2.7746e-07
-1.07974e-06
-2.77692e-07
-8.03368e-07
-2.76373e-07
-5.29948e-07
-2.7342e-07
-2.61337e-07
-2.6861e-07
-7.67052e-11
-2.61261e-07
2.53735e-07
-2.53811e-07
4.99608e-07
-2.45874e-07
7.34979e-07
-2.3537e-07
9.58107e-07
-2.23128e-07
1.16748e-06
-2.09373e-07
1.36169e-06
-1.94213e-07
1.53943e-06
-1.7774e-07
1.69947e-06
-1.60041e-07
1.84067e-06
-1.41201e-07
1.96198e-06
-1.21305e-07
2.06241e-06
-1.00427e-07
2.14096e-06
-7.85571e-08
2.19659e-06
-5.56293e-08
2.22733e-06
-3.07372e-08
2.23029e-06
-2.9543e-09
2.20089e-06
2.93962e-08
2.14319e-06
5.76944e-08
2.06117e-06
8.20238e-08
1.9596e-06
1.01574e-07
1.84377e-06
1.15826e-07
1.71937e-06
1.24401e-07
1.5929e-06
1.26472e-07
1.46887e-06
1.24029e-07
1.35108e-06
1.17792e-07
1.23691e-06
1.1417e-07
1.12859e-06
1.08317e-07
1.03837e-06
9.02166e-08
9.55825e-07
8.25484e-08
8.76355e-07
7.94703e-08
8.05473e-07
7.08817e-08
7.35637e-07
6.98355e-08
6.67508e-07
6.81298e-08
6.0251e-07
6.49975e-08
5.41814e-07
6.06962e-08
4.86041e-07
5.57734e-08
4.35311e-07
5.07293e-08
3.89428e-07
4.5883e-08
3.48044e-07
4.13838e-08
3.10783e-07
3.72618e-08
2.77298e-07
3.3485e-08
2.47293e-07
3.00042e-08
2.20517e-07
2.67766e-08
1.96743e-07
2.37735e-08
1.75763e-07
2.098e-08
1.5737e-07
1.83933e-08
1.41352e-07
1.6018e-08
1.27493e-07
1.38587e-08
1.15581e-07
1.19123e-08
1.05416e-07
1.0165e-08
9.68196e-08
8.59639e-09
8.96335e-08
7.18601e-09
8.37183e-08
5.91527e-09
7.89477e-08
4.77053e-09
7.52064e-08
3.74137e-09
7.23857e-08
2.82065e-09
7.03821e-08
2.00361e-09
6.90896e-08
1.29252e-09
6.83936e-08
6.96037e-10
6.81858e-08
2.07737e-10
6.8372e-08
-1.86128e-10
6.88598e-08
-4.87843e-10
6.95942e-08
-7.34401e-10
7.05328e-08
-9.38571e-10
7.16456e-08
-1.11278e-09
7.29105e-08
-1.26496e-09
7.43103e-08
-1.39978e-09
7.5828e-08
-1.51773e-09
7.74408e-08
-1.61275e-09
7.91136e-08
-1.67279e-09
8.08008e-08
-1.68721e-09
8.24576e-08
-1.65679e-09
8.40536e-08
-1.59605e-09
8.55787e-08
-1.52506e-09
8.70385e-08
-1.45987e-09
8.84474e-08
-1.40887e-09
8.98218e-08
-1.3744e-09
9.11779e-08
-1.35611e-09
9.25295e-08
-1.35158e-09
9.38822e-08
-1.3527e-09
9.52242e-08
-1.34198e-09
9.65223e-08
-1.29815e-09
9.7734e-08
-1.21165e-09
9.88279e-08
-1.09388e-09
9.97958e-08
-9.67994e-10
1.00649e-07
-8.53015e-10
1.01405e-07
-7.56449e-10
1.02082e-07
-6.76444e-10
1.0269e-07
-6.0785e-10
1.03235e-07
-5.45709e-10
1.03717e-07
-4.81268e-10
1.0411e-07
-3.93367e-10
1.04358e-07
-2.48504e-10
1.0439e-07
-3.15203e-11
1.04096e-07
2.93822e-10
1.03444e-07
6.51711e-10
1.02382e-07
1.06243e-09
1.0087e-07
1.51182e-09
9.88673e-08
2.00286e-09
9.63542e-08
2.51314e-09
9.34432e-08
2.91099e-09
9.03458e-08
3.09735e-09
8.74539e-08
2.8919e-09
5.83397e-09
8.162e-08
1.58099e-07
-2.61753e-07
2.93403e-07
-2.92504e-07
3.9646e-07
-2.64753e-07
4.73985e-07
-2.24969e-07
5.29618e-07
-1.80829e-07
5.65466e-07
-1.35236e-07
5.83172e-07
-8.98149e-08
5.8433e-07
-4.55812e-08
5.69824e-07
-2.69761e-09
5.43001e-07
3.67313e-08
5.04718e-07
7.30478e-08
4.53337e-07
1.03629e-07
3.88245e-07
1.26825e-07
3.09543e-07
1.42882e-07
2.17018e-07
1.54321e-07
1.09442e-07
1.6508e-07
-1.53885e-08
1.79123e-07
-1.60294e-07
1.99357e-07
-3.28402e-07
2.27336e-07
-5.22645e-07
2.63251e-07
-7.45182e-07
3.06208e-07
-9.96924e-07
3.54462e-07
-1.27731e-06
4.0563e-07
-1.58303e-06
4.57085e-07
-1.90827e-06
5.0618e-07
-2.24647e-06
5.50179e-07
-2.59023e-06
5.8652e-07
-2.932e-06
6.13174e-07
-3.26473e-06
6.28857e-07
-3.58225e-06
6.33109e-07
-3.87961e-06
6.26264e-07
-4.15321e-06
6.09316e-07
-4.40077e-06
5.83735e-07
-4.62128e-06
5.51248e-07
-4.81478e-06
5.1364e-07
-4.98214e-06
4.72598e-07
-5.12484e-06
4.2959e-07
-5.24469e-06
3.85807e-07
-5.34366e-06
3.42144e-07
-5.42374e-06
2.99223e-07
-5.48678e-06
2.57429e-07
-5.53451e-06
2.16957e-07
-5.56847e-06
1.77869e-07
-5.59001e-06
1.40141e-07
-5.60033e-06
1.03701e-07
-5.60053e-06
6.84702e-08
-5.59165e-06
3.4421e-08
-5.57477e-06
1.76365e-09
-5.54975e-06
-3.01007e-08
-5.51315e-06
-6.12348e-08
-5.46318e-06
-9.24215e-08
-5.39892e-06
-1.2345e-07
-5.31998e-06
-1.54241e-07
-5.22627e-06
-1.84757e-07
-5.11784e-06
-2.14945e-07
-4.99483e-06
-2.4473e-07
-4.85746e-06
-2.74014e-07
-4.70602e-06
-3.02677e-07
-4.54087e-06
-3.30587e-07
-4.36243e-06
-3.57597e-07
-4.17122e-06
-3.83551e-07
-3.96784e-06
-4.08287e-07
-3.75296e-06
-4.31634e-07
-3.52735e-06
-4.53421e-07
-3.29186e-06
-4.73472e-07
-3.04743e-06
-4.91613e-07
-2.79508e-06
-5.07673e-07
-2.53592e-06
-5.21485e-07
-2.27114e-06
-5.32893e-07
-2.002e-06
-5.4175e-07
-1.72982e-06
-5.47921e-07
-1.45599e-06
-5.51289e-07
-1.18194e-06
-5.51748e-07
-9.09102e-07
-5.49208e-07
-6.38946e-07
-5.43577e-07
-3.72821e-07
-5.34735e-07
-1.11468e-07
-5.22613e-07
1.42433e-07
-5.07712e-07
3.86646e-07
-4.90087e-07
6.20563e-07
-4.69288e-07
8.42854e-07
-4.45419e-07
1.05217e-06
-4.18692e-07
1.24722e-06
-3.89264e-07
1.42677e-06
-3.5729e-07
1.58967e-06
-3.22942e-07
1.73488e-06
-2.86409e-07
1.86148e-06
-2.47902e-07
1.96871e-06
-2.07653e-07
2.05606e-06
-1.65907e-07
2.12338e-06
-1.22957e-07
2.1717e-06
-7.90581e-08
2.20292e-06
-3.41671e-08
2.22008e-06
1.22286e-08
2.21943e-06
5.83534e-08
2.19905e-06
1.02402e-07
2.1581e-06
1.42523e-07
2.0969e-06
1.77021e-07
2.01694e-06
2.04368e-07
1.92004e-06
2.23365e-07
1.80934e-06
2.34729e-07
1.6873e-06
2.39833e-07
1.5607e-06
2.40767e-07
1.43577e-06
2.33251e-07
1.30998e-06
2.16009e-07
1.19153e-06
2.00996e-07
1.08542e-06
1.85577e-07
9.86498e-07
1.69807e-07
8.97354e-07
1.5898e-07
8.15602e-07
1.49881e-07
7.40023e-07
1.40576e-07
6.70116e-07
1.30603e-07
6.0575e-07
1.2014e-07
5.46886e-07
1.09593e-07
4.93429e-07
9.93397e-08
4.45187e-07
8.96259e-08
4.01888e-07
8.05614e-08
3.63212e-07
7.21601e-08
3.28827e-07
6.43893e-08
2.98401e-07
5.72035e-08
2.71611e-07
5.05635e-08
2.48149e-07
4.44416e-08
2.2772e-07
3.88225e-08
2.10039e-07
3.36991e-08
1.94833e-07
2.90641e-08
1.81845e-07
2.49e-08
1.70835e-07
2.11752e-08
1.61584e-07
1.78479e-08
1.53895e-07
1.48744e-08
1.47596e-07
1.22147e-08
1.4253e-07
9.83624e-09
1.38558e-07
7.71327e-09
1.35552e-07
5.82665e-09
1.33392e-07
4.16383e-09
1.31964e-07
2.72047e-09
1.31164e-07
1.49647e-09
1.30887e-07
4.84404e-10
1.31036e-07
-3.35493e-10
1.31537e-07
-9.88475e-10
1.32316e-07
-1.51384e-09
1.33321e-07
-1.94331e-09
1.3451e-07
-2.30167e-09
1.35851e-07
-2.60593e-09
1.37317e-07
-2.8662e-09
1.38885e-07
-3.08501e-09
1.40527e-07
-3.2554e-09
1.42217e-07
-3.3627e-09
1.43924e-07
-3.394e-09
1.45618e-07
-3.35073e-09
1.47275e-07
-3.25256e-09
1.48879e-07
-3.12899e-09
1.50426e-07
-3.00698e-09
1.5192e-07
-2.90361e-09
1.53372e-07
-2.8258e-09
1.54789e-07
-2.77371e-09
1.5618e-07
-2.74217e-09
1.57544e-07
-2.71716e-09
1.58875e-07
-2.67272e-09
1.60156e-07
-2.57895e-09
1.61366e-07
-2.42123e-09
1.62484e-07
-2.21248e-09
1.635e-07
-1.98402e-09
1.64413e-07
-1.76598e-09
1.65231e-07
-1.5741e-09
1.65963e-07
-1.40879e-09
1.66617e-07
-1.26191e-09
1.67194e-07
-1.12216e-09
1.67684e-07
-9.7125e-10
1.68065e-07
-7.74407e-10
1.683e-07
-4.83734e-10
1.68327e-07
-5.835e-11
1.68115e-07
5.05472e-10
1.67586e-07
1.18052e-09
1.66705e-07
1.94372e-09
1.65439e-07
2.77749e-09
1.63772e-07
3.67015e-09
1.6172e-07
4.56542e-09
1.59357e-07
5.27414e-09
1.56908e-07
5.54585e-09
1.5422e-07
5.58029e-09
7.8954e-09
1.52158e-07
1.11817e-07
-3.73569e-07
1.82963e-07
-3.6365e-07
2.27717e-07
-3.09507e-07
2.52794e-07
-2.50046e-07
2.61548e-07
-1.89583e-07
2.55816e-07
-1.29503e-07
2.36664e-07
-7.06634e-08
2.04807e-07
-1.37246e-08
1.61285e-07
4.08251e-08
1.0561e-07
9.24055e-08
3.83339e-08
1.40324e-07
-4.17476e-08
1.8371e-07
-1.37235e-07
2.22313e-07
-2.51728e-07
2.57375e-07
-3.88973e-07
2.91566e-07
-5.52025e-07
3.28132e-07
-7.42736e-07
3.69835e-07
-9.61564e-07
4.18186e-07
-1.2074e-06
4.73175e-07
-1.47754e-06
5.33387e-07
-1.76765e-06
5.96314e-07
-2.07195e-06
6.58768e-07
-2.38364e-06
7.17322e-07
-2.69529e-06
7.68729e-07
-2.99935e-06
8.10246e-07
-3.28903e-06
8.39855e-07
-3.55891e-06
8.56395e-07
-3.80534e-06
8.59613e-07
-4.02658e-06
8.50097e-07
-4.22259e-06
8.29113e-07
-4.39472e-06
7.98395e-07
-4.54531e-06
7.59907e-07
-4.67721e-06
7.15634e-07
-4.79337e-06
6.67411e-07
-4.89654e-06
6.16811e-07
-4.98903e-06
5.6509e-07
-5.07262e-06
5.13178e-07
-5.14853e-06
4.61711e-07
-5.21745e-06
4.11071e-07
-5.27967e-06
3.61443e-07
-5.33511e-06
3.12867e-07
-5.38344e-06
2.65289e-07
-5.42417e-06
2.18594e-07
-5.45667e-06
1.72641e-07
-5.48025e-06
1.27279e-07
-5.49414e-06
8.23637e-08
-5.49749e-06
3.77748e-08
-5.48908e-06
-6.6485e-09
-5.4681e-06
-5.10828e-08
-5.43355e-06
-9.57815e-08
-5.38528e-06
-1.40696e-07
-5.32305e-06
-1.85673e-07
-5.24671e-06
-2.30588e-07
-5.15615e-06
-2.75312e-07
-5.0514e-06
-3.19701e-07
-4.93253e-06
-3.63598e-07
-4.79972e-06
-4.06825e-07
-4.65321e-06
-4.49187e-07
-4.49332e-06
-4.90474e-07
-4.32045e-06
-5.30462e-07
-4.13509e-06
-5.68914e-07
-3.93779e-06
-6.05584e-07
-3.72921e-06
-6.40219e-07
-3.51007e-06
-6.72559e-07
-3.2812e-06
-7.02342e-07
-3.04351e-06
-7.29308e-07
-2.79798e-06
-7.53199e-07
-2.5457e-06
-7.73766e-07
-2.28782e-06
-7.90774e-07
-2.02557e-06
-8.04e-07
-1.76024e-06
-8.13246e-07
-1.4932e-06
-8.18335e-07
-1.22583e-06
-8.19118e-07
-9.59563e-07
-8.15473e-07
-6.95833e-07
-8.07307e-07
-4.36015e-07
-7.94553e-07
-1.81404e-07
-7.77224e-07
6.63159e-08
-7.55432e-07
3.05469e-07
-7.2924e-07
5.34776e-07
-6.98594e-07
7.52974e-07
-6.63617e-07
9.58762e-07
-6.2448e-07
1.15089e-06
-5.81388e-07
1.32817e-06
-5.34575e-07
1.48954e-06
-4.84307e-07
1.63402e-06
-4.3089e-07
1.76079e-06
-3.74677e-07
1.86921e-06
-3.16067e-07
1.95882e-06
-2.55521e-07
2.02943e-06
-1.93563e-07
2.08117e-06
-1.30799e-07
2.11477e-06
-6.7767e-08
2.13183e-06
-4.83406e-09
2.13302e-06
5.71658e-08
2.11861e-06
1.16814e-07
2.08865e-06
1.7248e-07
2.04324e-06
2.22434e-07
1.9826e-06
2.65008e-07
1.90711e-06
2.98856e-07
1.81822e-06
3.23617e-07
1.71845e-06
3.396e-07
1.61224e-06
3.46976e-07
1.50121e-06
3.44281e-07
1.38543e-06
3.31794e-07
1.27232e-06
3.14103e-07
1.16511e-06
2.92788e-07
1.06392e-06
2.70993e-07
9.71197e-07
2.51706e-07
8.86571e-07
2.34507e-07
8.09041e-07
2.18105e-07
7.37845e-07
2.01799e-07
6.72539e-07
1.85446e-07
6.12889e-07
1.69244e-07
5.58726e-07
1.53503e-07
5.0986e-07
1.38491e-07
4.66044e-07
1.24378e-07
4.26971e-07
1.11233e-07
3.923e-07
9.90601e-08
3.61678e-07
8.78249e-08
3.34758e-07
7.74841e-08
3.11203e-07
6.79961e-08
2.90699e-07
5.93267e-08
2.7295e-07
5.14481e-08
2.57682e-07
4.43321e-08
2.4464e-07
3.79423e-08
2.33586e-07
3.22287e-08
2.24303e-07
2.71313e-08
2.16591e-07
2.25866e-08
2.1027e-07
1.85354e-08
2.05179e-07
1.49269e-08
2.01173e-07
1.17197e-08
1.98118e-07
8.88156e-09
1.95893e-07
6.38906e-09
1.94386e-07
4.22743e-09
1.93496e-07
2.38623e-09
1.9313e-07
8.5061e-10
1.932e-07
-4.05516e-10
1.9363e-07
-1.41865e-09
1.9435e-07
-2.23425e-09
1.95302e-07
-2.89534e-09
1.96438e-07
-3.43742e-09
1.97719e-07
-3.88647e-09
1.99111e-07
-4.25887e-09
2.00588e-07
-4.56115e-09
2.02121e-07
-4.78927e-09
2.0369e-07
-4.9312e-09
2.05272e-07
-4.97614e-09
2.06848e-07
-4.92655e-09
2.08399e-07
-4.80328e-09
2.09909e-07
-4.63927e-09
2.11369e-07
-4.46754e-09
2.12778e-07
-4.31189e-09
2.14136e-07
-4.18411e-09
2.15448e-07
-4.08588e-09
2.16716e-07
-4.01048e-09
2.1794e-07
-3.9409e-09
2.19116e-07
-3.84853e-09
2.20238e-07
-3.70131e-09
2.21299e-07
-3.48194e-09
2.22287e-07
-3.20083e-09
2.23193e-07
-2.8899e-09
2.24011e-07
-2.58386e-09
2.24742e-07
-2.30441e-09
2.25388e-07
-2.05548e-09
2.25954e-07
-1.82792e-09
2.26437e-07
-1.60512e-09
2.26827e-07
-1.36121e-09
2.27107e-07
-1.05392e-09
2.27251e-07
-6.27897e-10
2.27231e-07
-3.89133e-11
2.27012e-07
7.24483e-10
2.26554e-07
1.63939e-09
2.25824e-07
2.67304e-09
2.24807e-07
3.79481e-09
2.23504e-07
4.97285e-09
2.21946e-07
6.12402e-09
2.20179e-07
7.04072e-09
2.18299e-07
7.42603e-09
2.16305e-07
7.57439e-09
8.84733e-09
2.15353e-07
4.01624e-08
-4.13732e-07
4.82738e-08
-3.71762e-07
4.24932e-08
-3.03726e-07
2.45192e-08
-2.32072e-07
-4.76522e-09
-1.60299e-07
-4.491e-08
-8.93587e-08
-9.59126e-08
-1.96607e-08
-1.58113e-07
4.84757e-08
-2.32052e-07
1.14765e-07
-3.18499e-07
1.78852e-07
-4.18633e-07
2.40458e-07
-5.34532e-07
2.9961e-07
-6.692e-07
3.56982e-07
-8.25865e-07
4.1404e-07
-1.00698e-06
4.7268e-07
-1.21338e-06
5.34535e-07
-1.44387e-06
6.0032e-07
-1.69515e-06
6.69466e-07
-1.96209e-06
7.40121e-07
-2.23817e-06
8.09462e-07
-2.51604e-06
8.74187e-07
-2.78831e-06
9.31031e-07
-3.04821e-06
9.77229e-07
-3.2903e-06
1.01082e-06
-3.51083e-06
1.03078e-06
-3.708e-06
1.03702e-06
-3.88187e-06
1.03027e-06
-4.03412e-06
1.01186e-06
-4.16755e-06
9.8352e-07
-4.28554e-06
9.47106e-07
-4.3916e-06
9.04456e-07
-4.48892e-06
8.57229e-07
-4.58012e-06
8.06833e-07
-4.6671e-06
7.54392e-07
-4.75104e-06
7.00749e-07
-4.83245e-06
6.46496e-07
-4.91128e-06
5.92014e-07
-4.98709e-06
5.37521e-07
-5.05913e-06
4.83106e-07
-5.12646e-06
4.28772e-07
-5.18805e-06
3.74464e-07
-5.24286e-06
3.20093e-07
-5.28982e-06
2.65557e-07
-5.32793e-06
2.10753e-07
-5.35624e-06
1.55587e-07
-5.37386e-06
9.99857e-08
-5.37998e-06
4.38971e-08
-5.37391e-06
-1.27237e-08
-5.35507e-06
-6.99221e-08
-5.32315e-06
-1.27696e-07
-5.27792e-06
-1.85932e-07
-5.21914e-06
-2.44454e-07
-5.14665e-06
-3.03078e-07
-5.06035e-06
-3.61604e-07
-4.96024e-06
-4.19813e-07
-4.84637e-06
-4.7747e-07
-4.71887e-06
-5.34322e-07
-4.57796e-06
-5.90097e-07
-4.42393e-06
-6.44506e-07
-4.25715e-06
-6.97246e-07
-4.07806e-06
-7.47999e-07
-3.88721e-06
-7.96437e-07
-3.68521e-06
-8.4222e-07
-3.47277e-06
-8.85004e-07
-3.25067e-06
-9.2444e-07
-3.0198e-06
-9.60179e-07
-2.78112e-06
-9.91878e-07
-2.53568e-06
-1.0192e-06
-2.28461e-06
-1.04184e-06
-2.02911e-06
-1.0595e-06
-1.77046e-06
-1.0719e-06
-1.50998e-06
-1.07882e-06
-1.24904e-06
-1.08006e-06
-9.89044e-07
-1.07547e-06
-7.31413e-07
-1.06494e-06
-4.77555e-07
-1.04841e-06
-2.28873e-07
-1.02591e-06
1.31951e-08
-9.975e-07
2.47232e-07
-9.63277e-07
4.7186e-07
-9.23222e-07
6.85758e-07
-8.77515e-07
8.87652e-07
-8.26373e-07
1.07633e-06
-7.70065e-07
1.25066e-06
-7.08908e-07
1.40963e-06
-6.43271e-07
1.55232e-06
-5.73581e-07
1.67797e-06
-5.00332e-07
1.786e-06
-4.24094e-07
1.876e-06
-3.45521e-07
1.94779e-06
-2.65357e-07
2.00144e-06
-1.8445e-07
2.03736e-06
-1.03682e-07
2.0564e-06
-2.3871e-08
2.05958e-06
5.39787e-08
2.04784e-06
1.28557e-07
2.02196e-06
1.98362e-07
1.98262e-06
2.61773e-07
1.93043e-06
3.17194e-07
1.86604e-06
3.63246e-07
1.79056e-06
3.99098e-07
1.70575e-06
4.24407e-07
1.61385e-06
4.3888e-07
1.51627e-06
4.41857e-07
1.41444e-06
4.33629e-07
1.31191e-06
4.16631e-07
1.21121e-06
3.93489e-07
1.11448e-06
3.67727e-07
1.02381e-06
3.4237e-07
9.40051e-07
3.18269e-07
8.63053e-07
2.95103e-07
7.92398e-07
2.72455e-07
7.27691e-07
2.50153e-07
6.68646e-07
2.28289e-07
6.15044e-07
2.07105e-07
5.66673e-07
1.86863e-07
5.23286e-07
1.67765e-07
4.84591e-07
1.49929e-07
4.50259e-07
1.33392e-07
4.19943e-07
1.18141e-07
3.93295e-07
1.04132e-07
3.69978e-07
9.13126e-08
3.49676e-07
7.96287e-08
3.32095e-07
6.90294e-08
3.16964e-07
5.94632e-08
3.04034e-07
5.08724e-08
2.93074e-07
4.31887e-08
2.8387e-07
3.63353e-08
2.76225e-07
3.02321e-08
2.69957e-07
2.4803e-08
2.64903e-07
1.99804e-08
2.60916e-07
1.57075e-08
2.57859e-07
1.19382e-08
2.55612e-07
8.63653e-09
2.54064e-07
5.77536e-09
2.53117e-07
3.33246e-09
2.52685e-07
1.2831e-09
2.52685e-07
-4.06021e-10