/*--------------------------------*- C++ -*----------------------------------*\
  =========                 |
  \\      /  F ield         | OpenFOAM: The Open Source CFD Toolbox
   \\    /   O peration     | Website:  https://openfoam.org
    \\  /    A nd           | Version:  9
     \\/     M anipulation  |
\*---------------------------------------------------------------------------*/
FoamFile
{
    format      ascii;
    class       volVectorField;
    location    "0.04";
    object      U;
}
// * * * * * * * * * * * * * * * * * * * * * * * * * * * * * * * * * * * * * //

dimensions      [0 1 -1 0 0 0 0];

internalField   nonuniform List<vector> 
12225
(
(0.937254 -0.296055 0)
(0.898684 -0.0767383 0)
(0.794046 0.00148546 0)
(0.686445 0.0130358 0)
(0.609431 0.0107867 0)
(0.553084 0.00819973 0)
(0.505121 0.00711703 0)
(0.460426 0.00696037 0)
(0.41693 0.00712312 0)
(0.37365 0.00729628 0)
(0.330524 0.00733904 0)
(0.288181 0.00715556 0)
(0.247868 0.00660229 0)
(0.211356 0.00535185 0)
(0.184667 0.00233093 0)
(0.170712 -0.00596086 0)
(0.272584 -0.0397272 0)
(0.149311 0.142384 0)
(1.02331 0.0834501 0)
(1.0004 0.0694052 0)
(0.961751 0.0372201 0)
(0.910497 0.0278981 0)
(0.858839 0.0240685 0)
(0.810085 0.0211459 0)
(0.763046 0.0197138 0)
(0.716666 0.0196447 0)
(0.66975 0.0203643 0)
(0.621142 0.0214013 0)
(0.570274 0.0224121 0)
(0.517274 0.023075 0)
(0.463044 0.022967 0)
(0.409105 0.0211918 0)
(0.360064 0.0154475 0)
(0.318892 -0.00584369 0)
(0.316323 -0.0416717 0)
(0.185411 0.153079 0)
(0.998984 0.01989 0)
(0.997654 0.0353142 0)
(0.991481 0.0361701 0)
(0.967548 0.0357312 0)
(0.934388 0.0339257 0)
(0.897283 0.0319432 0)
(0.857672 0.0312809 0)
(0.816285 0.0320958 0)
(0.772946 0.0339584 0)
(0.726924 0.0364192 0)
(0.677602 0.0390568 0)
(0.624757 0.041392 0)
(0.568704 0.0427699 0)
(0.510159 0.0419057 0)
(0.451422 0.035621 0)
(0.392727 0.0130139 0)
(0.332845 -0.0139676 0)
(0.200148 0.20254 0)
(0.998131 0.00584186 0)
(0.999775 0.0297318 0)
(1.00146 0.0386114 0)
(0.988807 0.0414717 0)
(0.966674 0.0419653 0)
(0.938672 0.0417884 0)
(0.906157 0.0425269 0)
(0.87027 0.0446597 0)
(0.831347 0.0480037 0)
(0.789026 0.0522154 0)
(0.742794 0.0568711 0)
(0.692254 0.061411 0)
(0.637275 0.0650425 0)
(0.577859 0.0662804 0)
(0.514534 0.0616778 0)
(0.445622 0.0427088 0)
(0.360745 0.029932 0)
(0.229908 0.25038 0)
(0.999184 0.00646112 0)
(1.00123 0.029878 0)
(1.00459 0.0404478 0)
(0.997555 0.0454965 0)
(0.982364 0.0483523 0)
(0.961036 0.0502985 0)
(0.934457 0.0528303 0)
(0.903663 0.0566366 0)
(0.869139 0.0617596 0)
(0.830741 0.0679985 0)
(0.78806 0.0749932 0)
(0.740624 0.0821904 0)
(0.687999 0.0887731 0)
(0.629666 0.0932524 0)
(0.564986 0.0924349 0)
(0.491376 0.0808247 0)
(0.397841 0.0824749 0)
(0.274721 0.285589 0)
(0.999526 0.00783849 0)
(1.00144 0.0293696 0)
(1.00492 0.0411103 0)
(1.00095 0.0482767 0)
(0.99021 0.053402 0)
(0.973701 0.0575431 0)
(0.951897 0.0620795 0)
(0.925567 0.0678011 0)
(0.895158 0.0749255 0)
(0.860617 0.0833984 0)
(0.821612 0.092963 0)
(0.777648 0.103141 0)
(0.728126 0.113185 0)
(0.672224 0.121752 0)
(0.608692 0.126215 0)
(0.534741 0.123863 0)
(0.441701 0.138138 0)
(0.33042 0.314522 0)
(0.999551 0.00812993 0)
(1.00113 0.0282782 0)
(1.0042 0.0412165 0)
(1.00186 0.0502911 0)
(0.993972 0.0574898 0)
(0.980938 0.0637758 0)
(0.962921 0.0703947 0)
(0.940415 0.0781675 0)
(0.913748 0.0874405 0)
(0.882892 0.0982925 0)
(0.847559 0.110586 0)
(0.807272 0.123959 0)
(0.761377 0.137792 0)
(0.708951 0.150969 0)
(0.648562 0.161528 0)
(0.577701 0.168825 0)
(0.490765 0.193472 0)
(0.393307 0.342169 0)
(0.999577 0.00810046 0)
(1.00074 0.0272717 0)
(1.00314 0.0411758 0)
(1.00159 0.0518548 0)
(0.99553 0.0609088 0)
(0.985019 0.069226 0)
(0.970005 0.0779143 0)
(0.95075 0.0877884 0)
(0.927457 0.0992858 0)
(0.900082 0.112599 0)
(0.868375 0.127709 0)
(0.831901 0.144383 0)
(0.790043 0.162155 0)
(0.741931 0.180155 0)
(0.686241 0.197036 0)
(0.621028 0.213414 0)
(0.543467 0.246157 0)
(0.46033 0.370007 0)
(0.999646 0.00811817 0)
(1.00037 0.0265366 0)
(1.00203 0.0411469 0)
(1.00079 0.0531599 0)
(0.99593 0.0638613 0)
(0.987281 0.0740626 0)
(0.974676 0.0847466 0)
(0.958201 0.0967043 0)
(0.937954 0.110435 0)
(0.913871 0.126222 0)
(0.885736 0.144155 0)
(0.853183 0.164125 0)
(0.815696 0.185808 0)
(0.772557 0.208561 0)
(0.722713 0.231513 0)
(0.664864 0.255853 0)
(0.598249 0.294592 0)
(0.529108 0.397936 0)
(0.999725 0.00819863 0)
(1.00007 0.0260557 0)
(1.00103 0.0411962 0)
(0.999866 0.0543275 0)
(0.995806 0.0664819 0)
(0.988578 0.0784025 0)
(0.977948 0.0909668 0)
(0.963891 0.104934 0)
(0.946424 0.120844 0)
(0.925476 0.139048 0)
(0.900871 0.159723 0)
(0.872332 0.182862 0)
(0.839478 0.208261 0)
(0.801797 0.235444 0)
(0.758564 0.263861 0)
(0.709062 0.294778 0)
(0.65381 0.337714 0)
(0.597916 0.425163 0)
(0.999795 0.00830516 0)
(0.999849 0.0257922 0)
(1.00023 0.0413566 0)
(0.999045 0.0554302 0)
(0.995568 0.068856 0)
(0.989483 0.0823218 0)
(0.980534 0.0966205 0)
(0.968635 0.112477 0)
(0.953754 0.130452 0)
(0.935824 0.150943 0)
(0.914724 0.174191 0)
(0.890275 0.20026 0)
(0.862244 0.229023 0)
(0.830333 0.260117 0)
(0.794136 0.293157 0)
(0.753383 0.329192 0)
(0.709212 0.374841 0)
(0.665561 0.450493 0)
(0.999846 0.00840952 0)
(0.99973 0.0257134 0)
(0.999732 0.0416047 0)
(0.998535 0.0564095 0)
(0.995509 0.0708478 0)
(0.990337 0.085568 0)
(0.982772 0.101303 0)
(0.9727 0.118746 0)
(0.960077 0.138461 0)
(0.944853 0.160872 0)
(0.92696 0.18625 0)
(0.906311 0.214697 0)
(0.882807 0.246123 0)
(0.856325 0.280214 0)
(0.826709 0.31663 0)
(0.793976 0.356098 0)
(0.759451 0.403165 0)
(0.726189 0.470821 0)
(0.999887 0.0085163 0)
(0.999677 0.0257414 0)
(0.999444 0.0419154 0)
(0.998299 0.0573418 0)
(0.995717 0.0726559 0)
(0.991407 0.0884746 0)
(0.985144 0.105483 0)
(0.976815 0.124342 0)
(0.966374 0.145611 0)
(0.953799 0.169718 0)
(0.939078 0.196946 0)
(0.922208 0.227408 0)
(0.903204 0.261019 0)
(0.882089 0.297477 0)
(0.858889 0.336424 0)
(0.833812 0.378236 0)
(0.808125 0.425843 0)
(0.784198 0.487302 0)
(0.999925 0.00863033 0)
(0.999704 0.0258519 0)
(0.999391 0.0423015 0)
(0.998436 0.0583067 0)
(0.99643 0.0744481 0)
(0.993124 0.0913189 0)
(0.988338 0.109561 0)
(0.981975 0.129798 0)
(0.974005 0.152568 0)
(0.964443 0.178289 0)
(0.953336 0.207232 0)
(0.940765 0.239492 0)
(0.926846 0.274964 0)
(0.911714 0.313328 0)
(0.895527 0.354165 0)
(0.878585 0.397486 0)
(0.861927 0.444853 0)
(0.847237 0.500742 0)
(0.999958 0.0087272 0)
(0.999837 0.025981 0)
(0.999672 0.0426633 0)
(0.999141 0.0591556 0)
(0.997946 0.076008 0)
(0.995894 0.0937954 0)
(0.992855 0.113119 0)
(0.988765 0.134561 0)
(0.983627 0.158623 0)
(0.977496 0.185688 0)
(0.970475 0.215986 0)
(0.962712 0.249571 0)
(0.95439 0.286293 0)
(0.945717 0.325787 0)
(0.936911 0.367561 0)
(0.928271 0.411314 0)
(0.920528 0.457572 0)
(0.914705 0.50841 0)
(0.999993 0.00875531 0)
(1.00011 0.0259739 0)
(1.00038 0.042757 0)
(1.00061 0.0595504 0)
(1.00059 0.0768885 0)
(1.00017 0.0953245 0)
(0.999278 0.115419 0)
(0.997882 0.137704 0)
(0.996021 0.162625 0)
(0.993789 0.190508 0)
(0.991328 0.22152 0)
(0.98882 0.25565 0)
(0.986479 0.292689 0)
(0.984527 0.332228 0)
(0.983176 0.373716 0)
(0.982658 0.416637 0)
(0.98341 0.460849 0)
(0.985887 0.506945 0)
(1.00004 0.00861917 0)
(1.00055 0.0255315 0)
(1.0016 0.0421067 0)
(1.00302 0.058842 0)
(1.00465 0.0762581 0)
(1.00636 0.0948754 0)
(1.00812 0.115205 0)
(1.00994 0.137714 0)
(1.01186 0.16278 0)
(1.01401 0.190651 0)
(1.01653 0.221417 0)
(1.01961 0.254996 0)
(1.02344 0.291123 0)
(1.0282 0.329364 0)
(1.03406 0.36915 0)
(1.04115 0.409872 0)
(1.04967 0.451049 0)
(1.05966 0.492493 0)
(1.0001 0.00815365 0)
(1.00119 0.024148 0)
(1.00336 0.0399012 0)
(1.00645 0.0559322 0)
(1.01025 0.072735 0)
(1.01465 0.0907785 0)
(1.01961 0.110508 0)
(1.02516 0.132314 0)
(1.03134 0.156491 0)
(1.03825 0.183203 0)
(1.04604 0.212464 0)
(1.05482 0.24413 0)
(1.06476 0.277902 0)
(1.07595 0.313346 0)
(1.0885 0.349924 0)
(1.10242 0.38704 0)
(1.11776 0.424123 0)
(1.13434 0.460692 0)
(1.00018 0.00709986 0)
(1.00204 0.0210371 0)
(1.00568 0.0348706 0)
(1.01086 0.0491092 0)
(1.01731 0.0641878 0)
(1.02485 0.0804962 0)
(1.03344 0.0983935 0)
(1.04305 0.118181 0)
(1.05372 0.140067 0)
(1.06552 0.16414 0)
(1.07853 0.190357 0)
(1.09281 0.218539 0)
(1.10843 0.248386 0)
(1.12544 0.2795 0)
(1.14382 0.311414 0)
(1.16353 0.343623 0)
(1.18449 0.375622 0)
(1.20645 0.406935 0)
(1.00025 0.00559668 0)
(1.00282 0.016547 0)
(1.00781 0.0275702 0)
(1.01488 0.0391878 0)
(1.02358 0.0517552 0)
(1.03366 0.0655615 0)
(1.04504 0.080867 0)
(1.05769 0.0978814 0)
(1.07161 0.116739 0)
(1.08685 0.137476 0)
(1.10346 0.160022 0)
(1.12149 0.184194 0)
(1.14094 0.209717 0)
(1.16181 0.236242 0)
(1.18407 0.26338 0)
(1.20762 0.29072 0)
(1.23235 0.317863 0)
(1.25802 0.344431 0)
(1.00029 0.00406824 0)
(1.00337 0.0120013 0)
(1.00943 0.0202759 0)
(1.01787 0.0294275 0)
(1.0281 0.0396938 0)
(1.03981 0.0512466 0)
(1.05288 0.0642441 0)
(1.06728 0.0788068 0)
(1.08301 0.0950029 0)
(1.10013 0.112832 0)
(1.11867 0.13221 0)
(1.13866 0.152961 0)
(1.16013 0.174837 0)
(1.18303 0.197531 0)
(1.20733 0.220708 0)
(1.23291 0.244025 0)
(1.25966 0.267154 0)
(1.28739 0.289797 0)
(1.00029 0.00254342 0)
(1.00376 0.0073552 0)
(1.01071 0.0128954 0)
(1.02025 0.0197194 0)
(1.03155 0.0278775 0)
(1.0443 0.0374032 0)
(1.05836 0.0483413 0)
(1.07371 0.060712 0)
(1.09037 0.0745175 0)
(1.10841 0.0897266 0)
(1.1279 0.106248 0)
(1.14888 0.123921 0)
(1.17135 0.142521 0)
(1.19529 0.161783 0)
(1.22065 0.181417 0)
(1.24732 0.201135 0)
(1.27519 0.220663 0)
(1.30407 0.239759 0)
(1.00022 0.00113486 0)
(1.0039 0.00279472 0)
(1.01164 0.00574878 0)
(1.02202 0.0105164 0)
(1.034 0.0168633 0)
(1.04728 0.024684 0)
(1.06172 0.0338965 0)
(1.07733 0.0444032 0)
(1.09417 0.0561388 0)
(1.11238 0.0690467 0)
(1.13204 0.0830359 0)
(1.15323 0.0979624 0)
(1.17596 0.113633 0)
(1.20023 0.12982 0)
(1.22598 0.146278 0)
(1.2531 0.162767 0)
(1.28146 0.179061 0)
(1.31091 0.194965 0)
(1.00006 -8.01145e-05 0)
(1.00372 -0.00165372 0)
(1.01219 -0.00100959 0)
(1.0232 0.00207976 0)
(1.03546 0.00697273 0)
(1.04875 0.0134633 0)
(1.06297 0.0213235 0)
(1.07816 0.0303134 0)
(1.0945 0.0403025 0)
(1.11218 0.0512179 0)
(1.13137 0.0629767 0)
(1.15215 0.0754581 0)
(1.17458 0.0885028 0)
(1.19865 0.101924 0)
(1.2243 0.115522 0)
(1.25142 0.1291 0)
(1.27988 0.142479 0)
(1.30952 0.155502 0)
(0.999769 -0.000827605 0)
(1.00312 -0.00594287 0)
(1.01241 -0.00729544 0)
(1.02376 -0.00543448 0)
(1.03576 -0.0015832 0)
(1.0484 0.00398795 0)
(1.06164 0.0108735 0)
(1.07564 0.0186681 0)
(1.09074 0.0271903 0)
(1.10725 0.0363676 0)
(1.12539 0.0461389 0)
(1.14528 0.056416 0)
(1.16697 0.0670795 0)
(1.19047 0.0779864 0)
(1.2157 0.0889826 0)
(1.24254 0.0999159 0)
(1.27085 0.110649 0)
(1.30045 0.12106 0)
(0.998975 -5.35325e-05 0)
(1.00178 -0.00937123 0)
(1.01221 -0.0127391 0)
(1.02343 -0.0117845 0)
(1.03423 -0.00854125 0)
(1.04515 -0.00346569 0)
(1.05635 0.00276711 0)
(1.0682 0.00960527 0)
(1.08127 0.0168469 0)
(1.09598 0.0244455 0)
(1.11258 0.0323851 0)
(1.1312 0.0406226 0)
(1.15188 0.0490838 0)
(1.17458 0.0576714 0)
(1.19922 0.0662757 0)
(1.22565 0.0747861 0)
(1.25369 0.0831055 0)
(1.28317 0.0911453 0)
(0.996794 0.0022663 0)
(0.999001 -0.0111332 0)
(1.01095 -0.0165737 0)
(1.02098 -0.0164997 0)
(1.02885 -0.0134996 0)
(1.0363 -0.00854222 0)
(1.04393 -0.0027563 0)
(1.05245 0.00320938 0)
(1.06265 0.0092129 0)
(1.07501 0.0152684 0)
(1.08973 0.021434 0)
(1.10688 0.0277216 0)
(1.12643 0.0341033 0)
(1.14828 0.0405236 0)
(1.1723 0.0469119 0)
(1.1983 0.0531934 0)
(1.22607 0.0593058 0)
(1.25542 0.0651931 0)
(0.99455 -0.00534278 0)
(0.996004 -0.0163715 0)
(1.00702 -0.019587 0)
(1.0125 -0.0193314 0)
(1.0141 -0.0161386 0)
(1.01518 -0.011032 0)
(1.0171 -0.00563475 0)
(1.02094 -0.000604783 0)
(1.02749 0.00405999 0)
(1.03713 0.0085164 0)
(1.04984 0.0129135 0)
(1.0655 0.0173133 0)
(1.08394 0.0217238 0)
(1.10499 0.0261202 0)
(1.12843 0.0304616 0)
(1.15405 0.0347005 0)
(1.18157 0.0387991 0)
(1.21081 0.0427291 0)
(1.01289 -0.0699791 0)
(1.007 -0.0625962 0)
(0.998664 -0.0331059 0)
(0.985457 -0.0218008 0)
(0.972132 -0.0164441 0)
(0.961769 -0.0112175 0)
(0.955227 -0.00643604 0)
(0.953055 -0.00251455 0)
(0.955418 0.000665951 0)
(0.962244 0.00355032 0)
(0.972966 0.0063049 0)
(0.987127 0.00900486 0)
(1.00442 0.0116691 0)
(1.02457 0.0142857 0)
(1.04732 0.0168331 0)
(1.07239 0.0192871 0)
(1.09945 0.0216228 0)
(1.12834 0.0238337 0)
(0.969185 0.246067 0)
(0.973886 0.0781106 0)
(0.917426 0.00805102 0)
(0.848475 -0.00631684 0)
(0.800349 -0.00629336 0)
(0.772044 -0.00364252 0)
(0.756142 -0.0013467 0)
(0.748725 0.000159569 0)
(0.747694 0.0010481 0)
(0.751141 0.00185996 0)
(0.758498 0.00269244 0)
(0.769468 0.0035635 0)
(0.783773 0.00446011 0)
(0.801113 0.00535662 0)
(0.821159 0.00623074 0)
(0.843576 0.00706762 0)
(0.867985 0.00784637 0)
(0.894116 0.00859406 0)
(0.051873 -0.0850196 -6.70033e-21)
(0.161488 -0.172401 5.651e-21)
(0.301015 -0.20691 0)
(0.44079 -0.206996 0)
(0.564314 -0.188372 0)
(0.66549 -0.160506 -5.36632e-21)
(0.742687 -0.12839 0)
(0.795273 -0.094352 0)
(0.824575 -0.0590126 0)
(0.829018 -0.0229886 0)
(0.807814 0.0109888 6.08343e-21)
(0.767467 0.0389737 0)
(0.715173 0.0579039 0)
(0.657719 0.0665408 0)
(0.60072 0.0656465 0)
(0.547474 0.057818 6.79968e-21)
(0.498304 0.046784 0)
(0.450951 0.0363258 0)
(0.40153 0.029545 0)
(0.345595 0.0283209 0)
(0.278706 0.0332502 0)
(0.196722 0.044037 0)
(0.0958422 0.0594701 0)
(-0.0272345 0.07796 1.09956e-20)
(-0.175692 0.10027 -1.07746e-20)
(-0.351834 0.127895 1.04274e-20)
(-0.55644 0.159997 1.01326e-20)
(-0.788457 0.194183 0)
(-1.0451 0.227543 0)
(-1.32213 0.257377 -9.83073e-21)
(-1.61428 0.281608 -9.95721e-21)
(-1.91575 0.29893 0)
(-2.22068 0.308801 0)
(-2.5235 0.311322 -1.08754e-20)
(-2.81918 0.307074 0)
(-3.10347 0.29694 0)
(-3.37286 0.281948 1.21693e-20)
(-3.62465 0.263135 0)
(-3.85685 0.241457 1.2994e-20)
(-4.06807 0.217739 2.67134e-20)
(-4.25741 0.192653 0)
(-4.42436 0.166731 0)
(-4.56868 0.140385 0)
(-4.69023 0.113955 0)
(-4.78898 0.0877479 0)
(-4.86501 0.0620993 2.89061e-20)
(-4.9187 0.0375386 2.88588e-20)
(-4.95032 0.0150147 2.8689e-20)
(-4.95928 -0.00434965 0)
(-4.94676 -0.0202767 -2.78466e-20)
(-4.91947 -0.0338019 0)
(-4.87618 -0.046351 2.63167e-20)
(-4.81803 -0.0583282 2.53047e-20)
(-4.7453 -0.0699746 0)
(-4.65825 -0.0813781 0)
(-4.5571 -0.0925668 0)
(-4.44207 -0.103538 1.96107e-20)
(-4.31339 -0.114273 0)
(-4.17138 -0.124743 0)
(-4.0164 -0.134913 0)
(-3.84889 -0.144746 0)
(-3.66934 -0.154201 0)
(-3.47835 -0.163235 0)
(-3.27657 -0.171807 0)
(-3.06476 -0.179873 0)
(-2.84374 -0.18739 1.81754e-21)
(-2.61442 -0.194317 0)
(-2.37779 -0.200615 0)
(-2.13492 -0.206248 -1.08658e-20)
(-1.88695 -0.211182 -1.39865e-20)
(-1.6351 -0.215385 0)
(-1.38064 -0.218827 2.02862e-20)
(-1.1249 -0.221473 -2.34285e-20)
(-0.869267 -0.22328 0)
(-0.61531 -0.224151 2.95971e-20)
(-0.364877 -0.223721 0)
(-0.119914 -0.220804 0)
(0.118469 -0.213101 -3.50411e-20)
(0.350384 -0.200937 0)
(0.574682 -0.187231 2.90742e-20)
(0.788994 -0.173089 0)
(0.991512 -0.15877 -2.35442e-20)
(1.18082 -0.144311 -2.09729e-20)
(1.35567 -0.129724 -1.85456e-20)
(1.51485 -0.115021 -3.25462e-20)
(1.65722 -0.100221 2.83309e-20)
(1.78171 -0.0853411 0)
(1.88732 -0.0703927 0)
(1.97315 -0.0553313 0)
(2.03791 -0.0401152 1.50905e-20)
(2.08149 -0.0238567 1.27468e-20)
(2.10136 -0.00464897 -1.08027e-20)
(2.0898 0.0156582 0)
(2.04978 0.0347896 7.96556e-21)
(1.98502 0.0508101 7.02761e-21)
(1.8993 0.0626675 6.35672e-21)
(1.79727 0.0700139 0)
(1.68392 0.0729467 0)
(1.56604 0.0702482 0)
(1.44801 0.0660666 5.4448e-21)
(1.33462 0.0640787 0)
(1.22281 0.0810936 0)
(1.11935 0.0917972 -5.04169e-21)
(1.02978 0.0604466 0)
(0.94475 0.0514223 0)
(0.871124 0.0539903 -4.95053e-21)
(0.80126 0.0336572 0)
(0.734266 0.0296893 0)
(0.669085 0.0288068 4.6656e-21)
(0.605885 0.0279465 4.58039e-21)
(0.546208 0.0266826 0)
(0.490974 0.0251036 -4.32668e-21)
(0.440496 0.0233585 0)
(0.394705 0.0215581 3.98818e-21)
(0.353322 0.0197721 0)
(0.31599 0.0180367 3.62114e-21)
(0.282368 0.0163654 3.4435e-21)
(0.252159 0.0147619 0)
(0.225111 0.0132278 0)
(0.201007 0.0117664 0)
(0.17965 0.0103834 0)
(0.160849 0.00908805 0)
(0.14441 0.00789172 0)
(0.130133 0.00680348 0)
(0.117812 0.00582463 2.54885e-21)
(0.107254 0.00494804 -2.50739e-21)
(0.0982798 0.00416221 0)
(0.0907332 0.0034563 0)
(0.0844757 0.0028204 0)
(0.0793813 0.00224797 0)
(0.0753364 0.00173406 -4.90495e-21)
(0.0722376 0.00127545 0)
(0.0699867 0.000869447 4.95104e-21)
(0.068483 0.000518706 -4.98391e-21)
(0.06762 0.00022873 0)
(0.0672888 7.36989e-06 0)
(0.0673856 -0.000158158 0)
(0.0678234 -0.000294111 5.13967e-21)
(0.0685317 -0.000403869 5.17798e-21)
(0.0694631 -0.000495043 0)
(0.0705841 -0.00057381 5.24806e-21)
(0.0718704 -0.000643722 5.27884e-21)
(0.0733039 -0.000706893 -5.30637e-21)
(0.0748701 -0.000763194 0)
(0.0765519 -0.000808428 0)
(0.0783202 -0.000834731 -5.36843e-21)
(0.0801312 -0.000835775 0)
(0.0819361 -0.000813188 0)
(0.0836972 -0.000776936 0)
(0.0853952 -0.000738787 0)
(0.087029 -0.000706563 5.40417e-21)
(0.0886097 -0.000683143 5.40188e-21)
(0.0901532 -0.000668526 0)
(0.0916761 -0.000662118 5.38961e-21)
(0.0931953 -0.00066286 0)
(0.0947237 -0.000666573 0)
(0.0962597 -0.000663549 5.35602e-21)
(0.0977761 -0.000642204 0)
(0.0992277 -0.000598573 5.32618e-21)
(0.100575 -0.000540824 0)
(0.101801 -0.000482142 0)
(0.102906 -0.000431486 5.27221e-21)
(0.103908 -0.000390918 0)
(0.104825 -0.00035824 5.23137e-21)
(0.105671 -0.00033073 0)
(0.106456 -0.000306727 0)
(0.107184 -0.000282896 0)
(0.107847 -0.000249086 -5.14453e-21)
(0.1084 -0.00018765 0)
(0.108768 -8.31123e-05 5.10067e-21)
(0.108846 2.82008e-05 0)
(0.108569 0.000179728 0)
(0.107887 0.000347155 0)
(0.106755 0.000528319 0)
(0.105122 0.000728269 0)
(0.10291 0.000938335 0)
(0.100183 0.00108757 0)
(0.096792 0.00113182 -9.85317e-21)
(0.0953059 0.000876933 0)
(0.0860068 0.00199018 0)
(0.0956264 -0.368057 1.77619e-20)
(0.206875 -0.457777 -1.34733e-20)
(0.30775 -0.433309 0)
(0.389278 -0.376713 8.1505e-21)
(0.449162 -0.308462 0)
(0.489858 -0.236285 3.8519e-21)
(0.513697 -0.163931 -8.71487e-21)
(0.522078 -0.0933954 -9.03809e-21)
(0.515587 -0.0258348 0)
(0.497562 0.0365837 -9.51369e-21)
(0.470184 0.090003 -4.71577e-21)
(0.430955 0.130157 0)
(0.37899 0.154611 0)
(0.31451 0.16441 0)
(0.237884 0.164455 0)
(0.148683 0.16203 -5.04966e-21)
(0.045422 0.164195 0)
(-0.0742536 0.175799 9.76113e-21)
(-0.213304 0.199192 0)
(-0.374559 0.234827 0)
(-0.560517 0.281977 -9.18184e-21)
(-0.772866 0.338991 0)
(-1.01208 0.403255 8.98524e-21)
(-1.27614 0.47131 -4.78501e-21)
(-1.56081 0.539457 4.73534e-21)
(-1.86065 0.603849 -4.71902e-21)
(-2.16926 0.660463 -4.74848e-21)
(-2.4798 0.705815 0)
(-2.78562 0.737452 0)
(-3.08066 0.754145 5.21122e-21)
(-3.35983 0.755874 -6.35346e-21)
(-3.61923 0.743637 0)
(-3.85617 0.719182 0)
(-4.06916 0.6847 6.75943e-21)
(-4.2578 0.642536 0)
(-4.42252 0.594964 0)
(-4.56442 0.544018 -8.28648e-21)
(-4.68499 0.491396 0)
(-4.78598 0.438424 1.02455e-20)
(-4.86916 0.386062 -1.93587e-20)
(-4.93625 0.334943 0)
(-4.98888 0.285431 0)
(-5.02847 0.237684 -4.4107e-20)
(-5.05633 0.191716 -4.48083e-20)
(-5.07358 0.147449 -4.52555e-20)
(-5.08124 0.104755 2.34452e-20)
(-5.08019 0.0635922 -2.19672e-20)
(-5.07126 0.0242706 -6.6811e-20)
(-5.05539 -0.0125639 4.4262e-20)
(-5.03217 -0.0466036 2.09161e-20)
(-4.99608 -0.0783999 0)
(-4.94736 -0.108829 -1.94706e-20)
(-4.88535 -0.138208 2.0142e-20)
(-4.80983 -0.166736 0)
(-4.72077 -0.194471 0)
(-4.61824 -0.221402 0)
(-4.50235 -0.247473 -1.38075e-20)
(-4.37333 -0.272604 0)
(-4.23143 -0.296696 2.40245e-20)
(-4.07698 -0.319642 0)
(-3.91039 -0.341328 1.78235e-20)
(-3.73215 -0.361636 0)
(-3.54279 -0.380447 -1.12138e-20)
(-3.34297 -0.397642 0)
(-3.1334 -0.413104 4.37737e-21)
(-2.91487 -0.426722 -2.05831e-21)
(-2.68828 -0.438389 0)
(-2.45457 -0.44801 5.8604e-21)
(-2.21479 -0.455497 6.32538e-21)
(-1.97005 -0.460777 7.96693e-21)
(-1.72154 -0.463789 0)
(-1.47049 -0.464484 7.31274e-21)
(-1.21818 -0.462823 1.24092e-20)
(-0.965969 -0.458765 0)
(-0.71518 -0.452254 -1.48296e-20)
(-0.467058 -0.44316 2.78826e-20)
(-0.222699 -0.431171 0)
(0.0162509 -0.415848 1.70563e-20)
(0.247747 -0.397273 0)
(0.470432 -0.376214 -4.41186e-20)
(0.683254 -0.35315 0)
(0.884991 -0.328342 3.87907e-20)
(1.07438 -0.301962 1.27372e-20)
(1.25022 -0.274159 -9.49121e-21)
(1.41134 -0.245079 -1.72311e-20)
(1.5567 -0.214874 1.54831e-20)
(1.68532 -0.183704 0)
(1.79638 -0.151727 0)
(1.88923 -0.119055 0)
(1.96351 -0.0857708 -3.11723e-20)
(2.01897 -0.0513866 -9.43526e-21)
(2.05717 -0.0151438 8.13269e-21)
(2.08279 0.0214568 0)
(2.09308 0.0564036 5.2833e-21)
(2.0855 0.0879885 -5.41219e-21)
(2.05863 0.114971 -4.90349e-21)
(2.01217 0.136378 0)
(1.94691 0.151345 0)
(1.86443 0.159388 0)
(1.76727 0.161425 -4.20658e-21)
(1.65808 0.157638 0)
(1.54192 0.147419 9.24116e-21)
(1.42057 0.13235 1.3323e-20)
(1.3016 0.119653 -8.89933e-21)
(1.18862 0.110942 0)
(1.08012 0.101181 -4.66909e-21)
(0.984883 0.0957121 0)
(0.896829 0.0922508 -7.99729e-21)
(0.81628 0.0880699 4.03041e-21)
(0.742085 0.0827136 3.93565e-21)
(0.673303 0.0763775 0)
(0.609718 0.0695391 1.08809e-20)
(0.551311 0.0626929 -7.07948e-21)
(0.498047 0.0561838 -3.34051e-21)
(0.4498 0.0501805 0)
(0.406352 0.044718 -3.0692e-21)
(0.367424 0.0397589 -8.8966e-21)
(0.332709 0.0352426 0)
(0.301895 0.0311133 -5.42999e-21)
(0.274678 0.0273297 -5.19512e-21)
(0.250766 0.0238653 -4.98695e-21)
(0.229877 0.020706 0)
(0.21174 0.0178452 0)
(0.196093 0.015277 0)
(0.182687 0.0129886 2.2338e-21)
(0.171285 0.0109583 2.16518e-21)
(0.161672 0.00915841 0)
(0.153651 0.007561 4.27159e-21)
(0.147049 0.0061416 4.25307e-21)
(0.14171 0.00488075 0)
(0.137497 0.00376307 4.24428e-21)
(0.134281 0.00277699 8.53981e-21)
(0.131947 0.00191461 -4.28754e-21)
(0.130384 0.00117317 -4.32379e-21)
(0.129486 0.000552558 0)
(0.129152 5.14531e-05 0)
(0.129285 -0.0003417 0)
(0.129801 -0.00065189 -4.46029e-21)
(0.130628 -0.000897454 4.4888e-21)
(0.131706 -0.00109577 9.04951e-21)
(0.132989 -0.00126011 -4.55989e-21)
(0.134443 -0.00139914 4.57875e-21)
(0.136041 -0.00151787 4.61462e-21)
(0.137757 -0.00161736 0)
(0.139569 -0.00169339 0)
(0.141451 -0.00173739 -4.66284e-21)
(0.143372 -0.00174214 0)
(0.145301 -0.00170901 0)
(0.147209 -0.00164969 9.40742e-21)
(0.149077 -0.00158052 0)
(0.150896 -0.00151531 4.70666e-21)
(0.152665 -0.00146178 -4.71876e-21)
(0.154394 -0.00142235 0)
(0.15609 -0.00139648 4.70106e-21)
(0.157765 -0.00138152 0)
(0.159422 -0.00137051 0)
(0.16106 -0.00135017 -4.68942e-21)
(0.162664 -0.00130534 9.34732e-21)
(0.164212 -0.00122936 -4.66764e-21)
(0.165683 -0.0011302 0)
(0.167058 -0.00102448 0)
(0.168333 -0.000926791 4.61791e-21)
(0.169512 -0.000843624 0)
(0.170605 -0.000774109 4.58677e-21)
(0.171621 -0.000714156 0)
(0.172564 -0.00065913 0)
(0.173431 -0.000601559 0)
(0.174208 -0.000525964 4.52512e-21)
(0.174861 -0.000410045 0)
(0.175336 -0.000237644 -4.49031e-21)
(0.175581 -1.68376e-05 0)
(0.175537 0.000253982 0)
(0.175142 0.000555222 8.87215e-21)
(0.174359 0.000880085 -8.83713e-21)
(0.17316 0.00122698 0)
(0.171517 0.00157557 0)
(0.169522 0.00184601 0)
(0.166966 0.00193233 2.60988e-20)
(0.165818 0.00192447 0)
(0.159265 0.00309718 -1.72616e-20)
(0.0609994 -0.64371 3.33986e-22)
(0.137057 -0.656196 1.69882e-20)
(0.185076 -0.564406 0)
(0.215815 -0.462114 -1.45859e-20)
(0.231043 -0.359152 0)
(0.232433 -0.258153 0)
(0.221386 -0.160791 -4.50078e-23)
(0.19877 -0.0682641 7.9791e-21)
(0.165315 0.0185354 8.12484e-21)
(0.121434 0.0989838 8.40897e-21)
(0.0671854 0.171356 0)
(0.00214709 0.233084 0)
(-0.0754872 0.282649 -7.90424e-21)
(-0.168549 0.321874 -1.49985e-20)
(-0.280345 0.355912 1.42222e-20)
(-0.414003 0.391466 0)
(-0.571837 0.43464 1.30012e-20)
(-0.755014 0.489408 -6.51931e-21)
(-0.963348 0.557033 0)
(-1.1952 0.636307 1.22294e-20)
(-1.44741 0.724039 6.18956e-21)
(-1.71549 0.815651 -1.2495e-20)
(-1.99377 0.905861 -6.17959e-21)
(-2.27575 0.989372 0)
(-2.55451 1.06129 1.42781e-20)
(-2.82346 1.11745 1.52515e-20)
(-3.07699 1.15487 0)
(-3.31096 1.17203 1.76991e-20)
(-3.52294 1.16886 0)
(-3.71212 1.1466 2.06744e-20)
(-3.87917 1.10754 9.45504e-21)
(-4.02581 1.05463 0)
(-4.15445 0.991114 0)
(-4.26776 0.920206 0)
(-4.36835 0.844832 0)
(-4.45852 0.767469 0)
(-4.54011 0.690065 0)
(-4.61446 0.614044 3.32174e-20)
(-4.68241 0.54035 -5.05803e-20)
(-4.74436 0.469532 0)
(-4.80039 0.401828 0)
(-4.85026 0.33726 0)
(-4.89359 0.275711 -1.45725e-21)
(-4.92985 0.216987 3.66846e-20)
(-4.95842 0.160856 7.52316e-20)
(-4.97867 0.107066 -7.53296e-20)
(-4.98978 0.0553313 -3.81678e-20)
(-4.99077 0.00527142 3.64958e-20)
(-4.98074 -0.0437088 1.37398e-21)
(-4.95879 -0.0922669 3.61844e-20)
(-4.92433 -0.140482 0)
(-4.87724 -0.187957 3.38079e-20)
(-4.81731 -0.234537 1.55568e-21)
(-4.74439 -0.280108 0)
(-4.65843 -0.324557 0)
(-4.55943 -0.367757 -2.70165e-20)
(-4.4475 -0.409558 0)
(-4.32278 -0.449798 0)
(-4.18553 -0.488296 2.23687e-20)
(-4.03602 -0.524865 3.61907e-20)
(-3.87465 -0.559309 -1.36337e-20)
(-3.70186 -0.591431 0)
(-3.51817 -0.62103 8.47654e-21)
(-3.32421 -0.647907 0)
(-3.12065 -0.671871 7.70857e-21)
(-2.90826 -0.692734 6.94115e-22)
(-2.68791 -0.710321 -9.53997e-22)
(-2.46051 -0.724472 -4.03715e-22)
(-2.22709 -0.735043 0)
(-1.98872 -0.741911 -1.30056e-20)
(-1.74656 -0.744979 0)
(-1.50182 -0.744173 -3.41561e-20)
(-1.25576 -0.739449 -2.47495e-20)
(-1.00969 -0.730787 -2.80091e-20)
(-0.764931 -0.718197 3.08933e-20)
(-0.522767 -0.701708 -5.25207e-20)
(-0.284444 -0.681424 0)
(-0.0513957 -0.657612 0)
(0.174849 -0.630386 3.68111e-20)
(0.392938 -0.599689 5.57023e-20)
(0.601645 -0.565702 0)
(0.79975 -0.528647 -1.8038e-20)
(0.986039 -0.488765 0)
(1.15935 -0.44631 4.38648e-20)
(1.31859 -0.401554 2.68438e-21)
(1.46277 -0.354794 -2.41006e-21)
(1.59101 -0.306353 -2.10763e-20)
(1.70258 -0.256577 0)
(1.79691 -0.205847 1.64916e-20)
(1.87366 -0.154577 1.45011e-21)
(1.93265 -0.103291 0)
(1.97419 -0.0523919 0)
(1.99965 -0.00168845 0)
(2.01003 0.0480172 -9.2747e-21)
(2.00567 0.0953038 0)
(1.98665 0.138592 0)
(1.95296 0.176292 0)
(1.90466 0.206971 0)
(1.84193 0.22959 0)
(1.7655 0.244205 -6.94225e-21)
(1.67718 0.251682 0)
(1.5805 0.253011 -7.72592e-21)
(1.47812 0.24693 -7.83702e-21)
(1.37097 0.233123 7.62324e-21)
(1.26281 0.216701 0)
(1.1583 0.198852 7.52297e-21)
(1.06005 0.181545 0)
(0.96864 0.167356 6.99043e-21)
(0.885154 0.155247 -6.83753e-21)
(0.808804 0.143736 -2.01848e-20)
(0.738638 0.132198 0)
(0.674122 0.120595 -1.92132e-20)
(0.614986 0.109164 -6.24311e-21)
(0.561078 0.0981812 0)
(0.512253 0.0878507 -1.15529e-20)
(0.468318 0.0782718 -1.10736e-20)
(0.429016 0.0694622 1.58775e-20)
(0.394042 0.061392 0)
(0.363071 0.054014 4.83242e-21)
(0.335774 0.0472805 4.63079e-21)
(0.31183 0.0411517 1.33712e-20)
(0.290934 0.0355966 0)
(0.272801 0.0305908 0)
(0.257164 0.0261105 0)
(0.243775 0.0221257 3.98564e-21)
(0.2324 0.0185972 0)
(0.222827 0.0154787 0)
(0.214858 0.0127236 -3.82824e-21)
(0.208314 0.0102892 -3.81273e-21)
(0.203033 0.00813958 0)
(0.198871 0.00624574 0)
(0.195696 0.00458496 -7.66133e-21)
(0.193388 0.00314048 0)
(0.191834 0.00190158 7.75633e-21)
(0.190934 0.000860598 7.81848e-21)
(0.190594 6.43127e-06 0)
(0.190726 -0.00067968 0)
(0.191253 -0.00122201 -8.00811e-21)
(0.192103 -0.001651 -1.86711e-24)
(0.193213 -0.00199381 -2.64918e-24)
(0.194533 -0.00227185 0)
(0.19602 -0.00250013 -1.64783e-20)
(0.19764 -0.00268789 0)
(0.199365 -0.00283852 0)
(0.201167 -0.00294911 0)
(0.203022 -0.003012 8.40217e-21)
(0.204909 -0.00302067 0)
(0.206807 -0.00297724 -1.68927e-20)
(0.208696 -0.00289507 -8.47067e-21)
(0.210559 -0.00279402 0)
(0.212384 -0.00269279 -8.49063e-21)
(0.214164 -0.00260375 0)
(0.2159 -0.00253217 0)
(0.217596 -0.00247807 -2.54432e-20)
(0.219254 -0.00243738 1.69389e-20)
(0.220877 -0.00240071 0)
(0.222462 -0.0023523 1.68851e-20)
(0.224004 -0.00227471 -8.43275e-21)
(0.225496 -0.00215941 0)
(0.226926 -0.00201366 0)
(0.228284 -0.00185588 0)
(0.22956 -0.00170458 -2.50266e-20)
(0.230753 -0.00157016 0)
(0.231865 -0.00145347 -8.2917e-21)
(0.232901 -0.00134935 0)
(0.23386 -0.00124986 0)
(0.234736 -0.00114308 0)
(0.235517 -0.00100889 0)
(0.236177 -0.000820836 0)
(0.236689 -0.000559925 0)
(0.237016 -0.000217821 -1.61619e-20)
(0.237118 0.000186123 0)
(0.236954 0.000636716 -8.02268e-21)
(0.236496 0.00112094 2.39742e-20)
(0.235734 0.00162687 0)
(0.234668 0.00211905 0)
(0.233397 0.00250025 -1.58061e-20)
(0.231678 0.00263827 -1.57463e-20)
(0.231059 0.00266075 1.57137e-20)
(0.226313 0.00347217 1.56154e-20)
(0.0110228 -0.777856 -2.96504e-20)
(0.0443341 -0.714868 -2.31648e-20)
(0.0428895 -0.591872 -1.36006e-20)
(0.0316039 -0.463929 -6.11907e-21)
(0.010694 -0.337284 0)
(-0.0199699 -0.21402 1.29817e-20)
(-0.0603068 -0.095253 -6.15629e-21)
(-0.110435 0.0181785 0)
(-0.170747 0.125574 -6.99414e-21)
(-0.241866 0.226263 0)
(-0.324611 0.319681 1.2579e-20)
(-0.420393 0.405546 0)
(-0.531554 0.484814 6.08311e-21)
(-0.661051 0.560367 1.15294e-20)
(-0.811634 0.63648 -1.09469e-20)
(-0.984939 0.717436 0)
(-1.1809 0.806101 -1.00722e-20)
(-1.39754 0.903031 0)
(-1.63109 1.00629 0)
(-1.87622 1.11185 -9.63486e-21)
(-2.12661 1.21437 0)
(-2.37548 1.30806 -1.50574e-21)
(-2.61634 1.38752 0)
(-2.84358 1.44846 0)
(-3.05297 1.48805 2.55704e-21)
(-3.24199 1.50509 -1.2815e-20)
(-3.40988 1.49994 -1.6936e-20)
(-3.55748 1.47428 -1.51347e-20)
(-3.68689 1.43077 0)
(-3.80099 1.37266 -3.89469e-20)
(-3.90298 1.30335 0)
(-3.99591 1.22613 -2.38496e-20)
(-4.08243 1.14391 0)
(-4.16458 1.05908 0)
(-4.24374 0.97351 2.77237e-20)
(-4.32062 0.88851 0)
(-4.39543 0.804946 -3.00055e-20)
(-4.46789 0.723305 2.17042e-21)
(-4.53743 0.643793 6.18837e-20)
(-4.60327 0.566415 -6.56067e-20)
(-4.6645 0.491048 0)
(-4.72015 0.417493 0)
(-4.76927 0.345523 -3.63497e-20)
(-4.81089 0.274903 0)
(-4.84412 0.205419 -3.35646e-20)
(-4.8681 0.136893 3.36511e-20)
(-4.88204 0.0691976 3.35713e-20)
(-4.88522 0.00222018 0)
(-4.87706 -0.0642027 -3.26456e-20)
(-4.85714 -0.130109 -3.18246e-20)
(-4.82519 -0.195446 6.48668e-20)
(-4.78099 -0.260024 -2.96878e-20)
(-4.72432 -0.323654 -2.83814e-20)
(-4.65505 -0.386136 0)
(-4.5731 -0.447262 0)
(-4.47845 -0.506808 2.36102e-20)
(-4.37118 -0.564534 0)
(-4.25142 -0.620189 0)
(-4.11936 -0.67351 -3.56135e-20)
(-3.97528 -0.724223 -3.14158e-20)
(-3.81954 -0.77205 0)
(-3.65254 -0.816707 0)
(-3.47481 -0.857913 0)
(-3.28691 -0.895387 0)
(-3.08952 -0.928855 -9.42634e-21)
(-2.88336 -0.958052 8.55453e-21)
(-2.66928 -0.98273 8.15267e-22)