/*--------------------------------*- C++ -*----------------------------------*\
  =========                 |
  \\      /  F ield         | OpenFOAM: The Open Source CFD Toolbox
   \\    /   O peration     | Website:  https://openfoam.org
    \\  /    A nd           | Version:  9
     \\/     M anipulation  |
\*---------------------------------------------------------------------------*/
FoamFile
{
    format      ascii;
    class       volScalarField;
    location    "0.21";
    object      epsilon;
}
// * * * * * * * * * * * * * * * * * * * * * * * * * * * * * * * * * * * * * //

dimensions      [0 2 -3 0 0 0 0];

internalField   nonuniform List<scalar> 
12225
(
278.07
262.528
247.808
234.938
224.721
217.465
213.132
211.468
212.1
214.613
218.597
223.684
229.561
235.971
242.724
249.68
256.811
267.524
60.0715
84.4698
95.4726
104.789
116.287
130.685
147.916
167.576
189.099
211.88
235.354
259.05
282.612
305.812
328.581
350.93
373.426
395.853
25.1244
35.7132
42.6321
47.7317
52.4585
57.4301
62.9336
69.1023
75.9653
83.4828
91.5778
100.159
109.139
118.448
128.051
137.959
148.287
159.23
17.4819
21.1793
24.5055
27.3254
29.8273
32.18
34.504
36.8846
39.3761
42.0079
44.7928
47.7347
50.834
54.0938
57.5254
61.1584
65.0479
69.2744
15.4773
16.7177
18.1209
19.493
20.7875
22.0083
23.1757
24.314
25.4451
26.5856
27.7477
28.9405
30.1719
31.4504
32.7874
34.2006
35.7167
37.3596
14.9056
15.2295
15.7255
16.3007
16.9024
17.5038
18.0939
18.6707
19.237
19.7967
20.3543
20.9141
21.4806
22.059
22.6556
23.2794
23.9429
24.6519
14.7444
14.7362
14.8275
14.9921
15.205
15.4467
15.7037
15.9678
16.2348
16.5029
16.7715
17.0414
17.3136
17.5904
17.8747
18.1707
18.4842
18.8162
14.7011
14.5818
14.5096
14.482
14.4923
14.5323
14.5946
14.6728
14.7624
14.8604
14.9647
15.0742
15.1885
15.3078
15.4331
15.5662
15.7098
15.8634
14.6902
14.5371
14.4064
14.2996
14.2161
14.154
14.1106
14.083
14.0684
14.0647
14.0701
14.0832
14.1033
14.1299
14.1632
14.2036
14.2525
14.3094
14.6875
14.5252
14.376
14.2406
14.1195
14.0123
13.9184
13.8368
13.7663
13.7057
13.6542
13.6107
13.5747
13.5457
13.5236
13.5086
13.5011
13.5012
14.6868
14.5221
14.3677
14.2233
14.0891
13.9648
13.85
13.7445
13.6477
13.5591
13.4782
13.4045
13.3377
13.2774
13.2237
13.1764
13.1361
13.1031
14.6866
14.5214
14.3656
14.2189
14.0809
13.9513
13.8297
13.7158
13.6091
13.5095
13.4165
13.3299
13.2494
13.1748
13.1061
13.0434
12.9869
12.9372
14.6865
14.5211
14.3649
14.2175
14.0783
13.9469
13.8228
13.7058
13.5953
13.4911
13.3929
13.3005
13.2136
13.1321
13.0561
12.9854
12.9204
12.8618
14.6865
14.5209
14.3646
14.2169
14.0774
13.9454
13.8206
13.7025
13.5907
13.4849
13.3848
13.2901
13.2007
13.1164
13.0371
12.9629
12.8938
12.8306
14.6864
14.5208
14.3644
14.2166
14.077
13.9449
13.8199
13.7015
13.5894
13.4833
13.3827
13.2874
13.1973
13.1122
13.0319
12.9565
12.8859
12.8208
14.6864
14.5206
14.3642
14.2164
14.0767
13.9446
13.8195
13.7011
13.589
13.4828
13.3822
13.287
13.1968
13.1115
13.031
12.9552
12.8839
12.818
14.6863
14.5206
14.3641
14.2162
14.0765
13.9443
13.8193
13.7009
13.5888
13.4827
13.3821
13.2868
13.1967
13.1113
13.0306
12.9545
12.8828
12.8161
14.6863
14.5205
14.364
14.2161
14.0763
13.9442
13.8191
13.7008
13.5887
13.4825
13.3819
13.2866
13.1963
13.1108
13.0298
12.9532
12.8809
12.8133
14.6863
14.5205
14.3639
14.216
14.0763
13.9441
13.8191
13.7007
13.5886
13.4824
13.3817
13.2862
13.1957
13.1098
13.0284
12.9512
12.8781
12.8096
14.6863
14.5205
14.3639
14.2161
14.0764
13.9443
13.8192
13.7009
13.5887
13.4824
13.3816
13.286
13.1952
13.1091
13.0273
12.9496
12.8759
12.8067
14.6863
14.5205
14.364
14.2163
14.0766
13.9446
13.8197
13.7014
13.5894
13.4832
13.3825
13.2869
13.1963
13.1102
13.0285
12.9508
12.8772
12.808
14.6863
14.5206
14.3643
14.2168
14.0776
13.9461
13.8218
13.7045
13.5935
13.4886
13.3894
13.2956
13.2069
13.1229
13.0434
12.9681
12.897
12.8304
14.6865
14.5212
14.366
14.2203
14.0838
13.9562
13.837
13.7257
13.6218
13.525
13.4346
13.3503
13.2716
13.1981
13.1295
13.0655
13.0057
12.9507
14.6876
14.5263
14.3792
14.2464
14.1276
14.0221
13.9287
13.8463
13.7735
13.7092
13.6524
13.6023
13.5579
13.5187
13.484
13.4536
13.4269
13.4042
14.6975
14.5658
14.4693
14.4047
14.3668
14.35
14.3493
14.3605
14.3805
14.4068
14.4378
14.4724
14.5098
14.5493
14.5907
14.6337
14.6781
14.724
14.7727
14.8147
14.9516
15.1444
15.3643
15.5939
15.8234
16.048
16.2659
16.4771
16.6821
16.8819
17.0774
17.2697
17.4597
17.6482
17.8359
18.0224
15.2524
16.0941
17.0272
17.9038
18.6967
19.4151
20.0725
20.6836
21.2618
21.818
22.3605
22.8956
23.4281
23.9611
24.497
25.0372
25.5824
26.1303
18.0063
21.8822
24.762
26.8631
28.5646
30.0657
31.4685
32.837
34.2112
35.614
37.0574
38.5464
40.0819
41.6617
43.2818
44.938
46.6253
48.3318
33.6821
44.9564
50.5123
54.0719
57.2532
60.5196
64.0244
67.8139
71.8779
76.1798
80.6756
85.322
90.0789
94.9103
99.7864
104.683
109.59
114.481
163.18
157.074
151.185
145.624
140.59
136.196
132.483
129.442
127.033
125.201
123.883
123.017
122.541
122.4
122.543
122.927
123.511
124.261
37.2624
48.8039
67.2546
82.1917
92.8846
100.045
104.366
106.323
106.222
104.281
101.182
98.0897
94.6761
90.7264
86.0686
80.6006
74.1174
67.2731
61.7887
57.8357
55.6756
55.6265
57.9377
62.7441
70.0705
79.8539
91.9647
106.216
122.369
140.146
159.255
179.415
200.383
221.976
244.084
266.696
289.926
311.542
330.89
347.724
361.826
373.014
381.162
386.207
388.158
387.1
383.193
376.669
367.829
357.035
344.704
331.306
317.372
303.503
290.379
278.67
268.865
260.078
251.75
243.879
236.547
229.841
223.838
218.598
214.165
210.565
207.815
205.915
204.859
204.631
205.21
206.566
208.67
211.486
214.978
219.107
223.835
229.121
234.925
241.204
247.919
255.027
262.486
270.251
278.281
286.531
294.955
303.511
312.153
320.838
329.526
338.177
346.755
355.229
363.573
371.768
379.799
387.66
395.352
402.884
410.272
417.537
424.707
431.817
438.902
446.003
453.161
460.417
467.812
475.382
483.163
491.185
499.471
508.041
516.906
526.07
535.53
545.277
555.292
565.549
576.017
586.656
597.419
608.257
619.112
629.923
640.624
651.146
661.421
671.377
680.944
690.057
698.654
706.684
714.103
720.884
727.01
732.485
737.327
741.57
745.265
748.474
751.27
753.734
755.947
757.993
759.949
761.882
763.847
765.878
767.987
770.152
772.32
774.401
776.268
777.76
778.688
778.837
777.979
775.904
772.461
767.623
761.468
754.076
745.583
736.141
725.896
714.997
703.588
691.81
679.786
667.61
655.341
642.976
630.434
617.498
603.765
588.313
570.148
543.883
75.3684
75.9519
76.6337
75.7653
74.2248
72.6205
71.1976
70.0525
69.2639
69.0396
69.9798
72.3913
76.0882
80.8722
86.4209
92.2027
96.393
96.5071
93.3671
89.2002
86.2436
85.4741
86.6733
89.1804
92.472
96.3197
100.69
105.602
111.047
116.984
123.353
130.1
137.182
144.584
152.313
160.408
168.947
177.281
184.997
191.903
197.834
202.645
206.213
208.449
209.302
208.759
206.851
203.65
199.265
193.836
187.526
180.518
173.001
165.163
157.18
149.2
141.323
133.68
126.627
119.977
113.733
107.926
102.586
97.7332
93.3811
89.5334
86.1873
83.3342
80.961
79.0511
77.5857
76.5441
75.9049
75.6463
75.7466
76.1846
76.9397
77.992
79.3225
80.9129
82.7455
84.8031
87.0689
89.5262
92.1584
94.949
97.881
100.938
104.102
107.356
110.684
114.068
117.493
120.943
124.403
127.862
131.307
134.731
138.125
141.486
144.811
148.1
151.357
154.585
157.791
160.984
164.172
167.366
170.576
173.813
177.086
180.404
183.775
187.205
190.698
194.257
197.881
201.569
205.316
209.114
212.954
216.824
220.71
224.597
228.466
232.296
236.067
239.754
243.335
246.783
250.073
253.182
256.085
258.761
261.191
263.358
265.251
266.864
268.193
269.243
270.023
270.545
270.828
270.895
270.768
270.474
270.038
269.484
268.83
268.094
267.282
266.395
265.425
264.354
263.158
261.803
260.254
258.474
256.432
254.112
251.529
248.773
246.064
243.296
240.357
237.194
233.823
230.282
226.608
222.839
219.02
215.209
211.475
207.912
204.655
201.92
200.111
199.928
203.223
212.845
109.51
99.5908
92.3395
85.9262
80.7679
77.1187
74.9175
74.0536
74.665
77.1779
81.2533
86.7067
93.3992
101.396
110.058
117.743
123.71
127.135
128.394
128.579
128.573
128.725
129.156
130.051
131.685
134.3
138.016
142.814
148.59
155.195
162.485
170.332
178.633
187.301
196.262
205.446
214.453
222.928
230.652
237.434
243.09
247.453
250.376
251.754
251.522
249.663
246.212
241.248
234.896
227.312
218.679
209.197
199.067
188.492
177.66
166.746
155.909
145.293
135.396
126.114
117.387
109.231
101.675
94.7388
88.4323
82.7571
77.7063
73.2664
69.4182
66.1388
63.4023
61.1808
59.4458
58.1679
57.3182
56.8683
56.7906
57.0587
57.6472
58.5321
59.6908
61.1015
62.744
64.5989
66.6474
68.8715
71.2539
73.7773
76.4247
79.1794
82.0249
84.9447
87.9228
90.9436
93.9922
97.0545
100.118
103.17
106.201
109.204
112.171
115.098
117.983
120.826
123.628
126.393
129.125
131.831
134.519
137.195
139.869
142.547
145.239
147.951
150.689
153.459
156.264
159.105
161.985
164.901
167.85
170.827
173.824
176.834
179.845
182.844
185.816
188.747
191.616
194.407
197.099
199.671
202.103
204.376
206.469
208.365
210.049
211.508
212.733
213.717
214.461
214.965
215.237
215.287
215.128
214.777
214.252
213.571
212.75
211.806
210.751
209.593
208.335
206.977
205.512
203.931
202.22
200.369
198.367
196.213
193.914
191.485
188.93
186.228
183.365
180.358
177.19
173.847
170.349
166.727
163.021
159.274
155.539
151.868
148.323
144.977
141.952
139.403
137.933
138.25
131.95
110.794
101.675
95.365
90.9639
88.4462
87.84
89.3907
93.8716
100.026
107.732
115.795
123.865
131.74
139.362
146.642
153.59
159.927
165.312
169.551
172.693
175.08
177.28
179.914
183.465
188.188
194.116
201.142
209.097
217.805
227.115
236.9
247.051
257.464
268.027
278.622
288.602
297.774
305.928
312.846
318.314
322.137
324.153
324.244
322.346
318.453
312.624
304.971
295.658
284.889
272.894
259.916
246.203
231.995
217.518
202.981
188.58
174.491
161.28
148.879
137.192
126.234
116.033
106.612
97.9855
90.1528
83.1057
76.827
71.2923
66.4724
62.3337
58.8405
55.9555
53.641
51.8597
50.5754
49.7528
49.3582
49.3594
49.7259
50.4286
51.4399
52.7339
54.2857
56.072
58.0703
60.2595
62.6189
65.1286
67.7695
70.5226
73.3696
76.2927
79.2745
82.2983
85.3484
88.4097
91.4687
94.5132
97.5327
100.518
103.463
106.363
109.214
112.017
114.772
117.483
120.154
122.791
125.402
127.993
130.573
133.151
135.734
138.33
140.944
143.584
146.253
148.954
151.689
154.457
157.255
160.081
162.927
165.785
168.646
171.497
174.325
177.112
179.843
182.498
185.058
187.502
189.81
191.961
193.935
195.715
197.285
198.631
199.743
200.615
201.244
201.632
201.785
201.712
201.426
200.943
200.28
199.455
198.486
197.388
196.176
194.861
193.45
191.948
190.357
188.675
186.9
185.029
183.058
180.983
178.798
176.487
174.033
171.414
168.619
165.644
162.483
159.137
155.626
151.983
148.244
144.45
140.642
136.858
133.13
129.494
125.97
122.702
119.912
155.578
135.204
126.232
119.083
113.871
111.322
111.995
116.775
122.91
130.129
137.881
145.457
152.456
158.955
165.46
172.559
180.522
189.053
197.521
205.393
212.509
219.108
225.652
232.603
240.28
248.81
258.174
268.271
278.978
290.18
301.771
313.655
325.726
337.858
349.887
361.589
372.344
382.054
390.499
397.429
402.599
405.78
406.782
405.47
401.771
395.692
387.314
376.788
364.329
350.195
334.675
318.068
300.67
282.764
264.61
246.445
228.483
210.944
194.485
178.918
164.174
150.281
137.274
125.184
114.03
103.818
94.5425
86.1885
78.7317
72.1406
66.3777
61.4012
57.1664
53.6273
50.7377
48.4523
46.7274
45.5212
44.7942
44.5093
44.6315
45.1276
45.9664
47.1182
48.5548
50.2493
52.1763
54.311
56.6302
59.1111
61.7321
64.4721
67.311
70.2293
73.2083
76.2304
79.2791
82.3388
85.3959
88.4379
91.4545
94.4369
97.3788
100.276
103.125
105.927
108.682
111.395
114.07
116.712
119.329
121.929
124.519
127.107
129.7
132.307
134.933
137.583
140.262
142.971
145.712
148.484
151.284
154.108
156.948
159.795
162.64
165.468
168.265
171.013
173.695
176.29
178.779
181.139
183.35
185.39
187.241
188.884
190.303
191.487
192.426
193.115
193.553
193.745
193.698
193.425
192.94
192.262
191.409
190.402
189.26
188.002
186.645
185.203
183.689
182.111
180.475
178.783
177.033
175.221
173.336
171.363
169.284
167.074
164.714
162.182
159.465
156.555
153.441
150.136
146.665
143.06
139.355
135.582
131.771
127.939
124.095
120.227
116.367
112.614
177.288
179.982
168.812
159.302
152.742
149.791
150.915
152.992
156.298
160.533
165.183
169.85
174.509
179.581
185.757
193.618
203.291
214.384
226.237
238.274
250.208
262.034
273.905
285.987
298.38
311.104
324.124
337.383
350.828
364.406
378.064
391.734
405.327
418.72
431.759
443.933
455.092
465.108
473.74
480.703
485.705
488.467
488.749
486.37
481.227
473.315
462.725
449.646
434.342
417.135
398.379
378.436
357.655
336.36
314.845
293.369
272.12
251.601
232.189
213.656
195.997
179.258
163.487
148.721
134.987
122.301
110.667
100.078
90.5168
81.9569
74.3641
67.6971
61.9091
56.9493
52.7647
49.3015
46.5068
44.3294
42.7206
41.635
41.03
40.8662
41.1068
41.7172
42.6649
43.9189
45.45
47.2299
49.2319
51.4301
53.8
56.3178
58.9611
61.7083
64.5389
67.4336
70.3742
73.3441
76.3281
79.3124
82.2853
85.2369
88.1592
91.0464
93.8945
96.7017
99.4681
102.195
104.887
107.547
110.181
112.796
115.399
117.996
120.595
123.203
125.824
128.466
131.13
133.821
136.54
139.286
142.058
144.85
147.658
150.473
153.284
156.08
158.845
161.563
164.217
166.786
169.251
171.589
173.78
175.802
177.634
179.259
180.66
181.823
182.738
183.399
183.806
183.96
183.871
183.549
183.011
182.275
181.362
180.295
179.097
177.789
176.394
174.931
173.417
171.868
170.292
168.695
167.076
165.428
163.74
161.993
160.166
158.234
156.175
153.964
151.584
149.021
146.26
143.292
140.14
136.83
133.389
129.846
126.224
122.534
118.781
114.953
111.064
107.188
180.183
264.711
231.541
215.815
206.977
201.138
195.853
192.183
190.135
189.412
189.758
191.139
193.826
198.329
205.18
214.665
226.655
240.652
255.999
272.101
288.546
305.102
321.649
338.118
354.448
370.586
386.492
402.146
417.542
432.679
447.547
462.11
476.299
490.006
503.087
515.089
526.216
536.327
545.158
552.382
557.646
560.59
560.885
558.259
552.533
543.649
531.682
516.837
499.429
479.852
458.539
435.924
412.42
388.393
364.172
340.032
316.225
293.527
271.678
250.656
230.506
211.287
193.052
175.846
159.705
144.655
130.712
117.881
106.159
95.5326
85.98
77.4692
69.9602
63.4059
57.7535
52.9462
48.9249
45.6302
43.0042
40.9913
39.5394
38.6004
38.1295
38.0859
38.4316
39.1312
40.1514
41.4609
43.0297
44.8293
46.8325
49.0134
51.3475
53.8112
56.3826
59.0409
61.7668
64.5424
67.3516
70.1798
73.014
75.8433
78.6587
81.4528
84.2205
86.9584
89.6649
92.34
94.9853
97.6036
100.199
102.776
105.34
107.896
110.451
113.01
115.577
118.159
120.757
123.375
126.014
128.674
131.352
134.046
136.749
139.454
142.152
144.83
147.475
150.071
152.601
155.047
157.387
159.603
161.672
163.573
165.288
166.797
168.085
169.137
169.945
170.501
170.806
170.862
170.676
170.263
169.637
168.818
167.83
166.695
165.44
164.089
162.668
161.201
159.708
158.207
156.711
155.227
153.755
152.289
150.817
149.319
147.775
146.159
144.448
142.617
140.644
138.512
136.207
133.701
131.004
128.135
125.118
121.976
118.726
115.381
111.945
108.415
104.812
101.21
824.683
360.815
299.241
279.02
264.875
251.952
240.655
231.271
223.886
218.517
215.246
214.291
215.997
220.733
228.737
239.974
254.096
270.519
288.571
307.625
327.168
346.808
366.251
385.279
403.735
421.525
438.605
454.981
470.688
485.775
500.283
514.229
527.59
540.29
552.182
563.354
574.067
584.185
593.42
601.403
607.704
611.857
613.396
611.897
607.032
598.62
586.663
571.352
553.044
532.214
509.393
485.115
459.87
434.073
408.111
382.303
357.379
333.165
309.66
286.913
264.985
243.936
223.82
204.685
186.571
169.514
153.542
138.677
124.93
112.309
100.808
90.4141
81.1046
72.8462
65.5968
59.3062
53.9178
49.3706
45.6013
42.5466
40.1451
38.3382
37.0717
36.2954
35.9637
36.0345
36.4695
37.2329
38.2913
39.6133
41.1692
42.9312
44.8726
46.9685
49.1956
51.5319
53.9571
56.4527
59.0015
61.5883
64.1994
66.823
69.4491
72.0693
74.6772
77.268
79.8384
82.3868
84.9128
87.4174
89.9026
92.3711
94.8263
97.2722
99.7128
102.152
104.594
107.042
109.499
111.966
114.445
116.935
119.435
121.941
124.448
126.949
129.435
131.897
134.321
136.693
138.997
141.215
143.331
145.323
147.173
148.861
150.368
151.678
152.774
153.645
154.282
154.678
154.834
154.753
154.444
153.918
153.192
152.288
151.226
150.034
148.737
147.362
145.937
144.488
143.038
141.606
140.209
138.853
137.541
136.268
135.022
133.786
132.54
131.261
129.924
128.505
126.98
125.329
123.535
121.576
119.426
117.102
114.621
112.001
109.255
106.395
103.428
100.362
97.2243
94.0864
826.497
415.685
356.058
331.641
313.424
296.847
281.664
268.315
257.264
248.891
243.532
241.498
243.06
248.375
257.406
269.874
285.278
302.97
322.252
342.462
363.018
383.434
403.323
422.39
440.437
457.358
473.131
487.805
501.483
514.295
526.376
537.842
548.767
559.174
569.018
578.948
589.092
599.287
609.242
618.574
626.804
633.373
637.659
639.028
636.915
630.911
620.846
606.835
589.248
568.643
545.674
521.011
495.254
468.85
442.596
416.826
391.54
366.795
342.654
319.179
296.422
274.434
253.263
232.952
213.544
195.081
177.6
161.137
145.722
131.379
118.128
105.977
94.9285
84.9711
76.0842
68.2355
61.3822
55.4724
50.4467
46.2412
42.7899
40.0266
37.8879
36.3136
35.2483
34.6414
34.4465
34.6217
35.1286
35.9318
36.9983
38.2977
39.8013
41.4826
43.3167
45.2807
47.3533
49.5152
51.7485
54.0375
56.3678
58.7269
61.104
63.4899
65.8768
68.2587
70.6308
72.9899
75.3338
77.6615
79.9729
82.2689
84.5509
86.8207
89.0807
91.3331
93.5804
95.8246
98.0674
100.31
102.553
104.795
107.035
109.27
111.496
113.706
115.893
118.048
120.161
122.218
124.207
126.112
127.916
129.603
131.156
132.558
133.791
134.84
135.692
136.336
136.764
136.971
136.957
136.726
136.287
135.651
134.835
133.858
132.743
131.516
130.202
128.83
127.427
126.02
124.632
123.286
121.996
120.773
119.62
118.534
117.505
116.521
115.562
114.607
113.634
112.619
111.538
110.371
109.095
107.699
106.13
104.394
102.5
100.46
98.2847
95.9837
93.5667
91.0487
88.4601
85.8648
939.153
463.665
394.948
369.075
350.308
332.9
316.455
301.631
289.202
279.811
273.929
271.868
273.781
279.637
289.201
302.034
317.539
335.017
353.747
373.038
392.271
410.919
428.56
444.888
459.723
473.004
484.793
495.248
504.604
513.138
521.132
528.839
536.458
544.109
552.144
560.986
570.575
580.751
591.305
601.96
612.325
621.853
629.833
635.428
637.761
636.069
629.864
619.065
603.979
585.225
563.58
539.924
514.996
489.915
464.803
439.882
415.301
391.161
367.526
344.441
321.939
300.052
278.81
258.249
238.408
219.329
201.056
183.634
167.108
151.521
136.912
123.316
110.759
99.2602
88.8261
79.4515
71.1181
63.7946
57.4375
51.9931
47.4001
43.5921
40.5013
38.0603
36.2047
34.8742
34.0135
33.5723
33.5051
33.7705
34.331
35.1523
36.2029
37.4538
38.8784
40.4522
42.1528
43.9598
45.8548
47.8211
49.8437
51.9095
54.0068
56.1255
58.257
60.3938
62.5301
64.6607
66.7821
68.8913
70.9864
73.0662
75.1301
77.1783
79.2109
81.2288
83.2325
85.2229
87.2005
89.1655
91.1176
93.0561
94.9792
96.8844
98.7681
100.626
102.451
104.237
105.975
107.656
109.267
110.798
112.235
113.563
114.769
115.839
116.758
117.513
118.093
118.489
118.694
118.704
118.521
118.146
117.589
116.86
115.975
114.952
113.812
112.578
111.277
109.934
108.577
107.231
105.92
104.665
103.482
102.382
101.37
100.446
99.6043
98.8334
98.1188
97.443
96.7858
96.1255
95.4396
94.7058
93.9028
93.0118
92.0009
90.8331
89.5149
88.0519
86.4507
84.7192
82.8673
80.9134
78.8873
76.8399
1025.32
493.581
418.044
392.051
374.749
358.937
343.788
329.95
318.325
309.681
304.542
303.191
305.679
311.846
321.332
333.603
348.003
363.804
380.27
396.702
412.478
427.085
440.142
451.417
460.845
468.525
474.706
479.749
484.084
488.153
492.357
497.023
502.377
508.53
515.836
523.898
532.532
541.698
551.442
561.808
572.729
583.904
594.725
604.271
611.387
614.867
613.718
607.487
596.285
580.762
561.648
540.676
518.398
495.457
472.298
449.225
426.421
403.985
381.963
360.37
339.209
318.483
298.204
278.387
259.063
240.266
222.041
204.438
187.511
171.316
155.91
141.35
127.686
114.966
103.226
92.4932
82.781
74.0879
66.3971
59.6769
53.8822
48.9574
44.8389
41.459
38.7488
36.6411
35.0721
33.9828
33.319
33.0322
33.0783
33.4177
34.0146
34.8367
35.8545
37.0415
38.3733
39.8283
41.3866
43.0307
44.7447
46.5145
48.3276
50.173
52.0409
53.9229
55.8116
57.7008
59.5851
61.4601
63.322
65.1679
66.9953
68.8026
70.5882
72.3511
74.0905
75.8057
77.4962
79.1611
80.7997
82.4107
83.9925
85.5429
87.0592
88.5379
89.9747
91.3644
92.7009
93.9772
95.1853
96.3164
97.3607
98.3079
99.1472
99.8677
100.459
100.91
101.213
101.36
101.346
101.168
100.826
100.325
99.6701
98.8718
97.9431
96.9004
95.7623
94.55
93.2864
91.9955
90.7018
89.4292
88.1999
87.0335
85.9459
84.9489
84.0491
83.2486
82.5447
81.9306
81.3958
80.9267
80.5068
80.1176
79.7387
79.3489
78.927
78.4531
77.9072
77.2314
76.4217
75.4772
74.3998
73.1942
71.8692
70.4427
68.9409
67.3988
1076.42
507.967
427.368
402.176
387.731
375.344
363.518
352.638
343.542
337.002
333.542
333.409
336.592
342.854
351.766
362.749
375.118
388.14
401.09
413.299
424.208
433.403
440.657
445.955
449.495
451.672
453.021
454.138
455.59
457.833
461.157
465.678
471.38
478.202
485.456
492.356
498.79
504.961
511.278
518.257
526.36
535.792
546.308
557.146
567.062
574.497
577.835
576.136
569.092
557.572
542.445
524.763
505.453
485.28
464.795
444.358
424.169
404.313
384.809
365.637
346.762
328.152
309.788
291.662
273.783
256.175
238.872
221.924
205.384
189.317
173.79
158.874
144.642
131.162
118.503
106.72
95.8616
85.9609
77.035
69.0836
62.0892
56.0178
50.8215
46.4422
42.8146
39.8705
37.5414
35.7617
34.4694
33.6081
33.1264
32.978
33.1215
33.5199
34.1398
34.9515
35.9282
37.0459
38.2832
39.6208
41.0416
42.5303
44.0733
45.6583
47.2747
48.9127
50.5637
52.2202
53.8753
55.5231
57.1584
58.7765
60.3734
61.9457
63.4902
65.0044
66.4861
67.9332
69.3441
70.717
72.0505
73.3429
74.5926
75.7977
76.9562
78.0657
79.1233
80.1259
81.0697
81.9504
82.7631
83.5022
84.1617
84.7349
85.2149
85.5942
85.8657
86.0224
86.0581
85.9677
85.7476
85.3959
84.9131
84.3021
83.5685
82.7203
81.7686
80.7267
79.6105
78.4377
77.2281
76.0023
74.7814
73.5862
72.4365
71.3499
70.3411
69.4217
68.5995
67.8785
67.259
66.738
66.3093
65.9635
65.6887
65.4701
65.2907
65.1318
64.9737
64.797
64.585
64.2908
63.8844
63.3608
62.7173
61.9549
61.0794
60.1062
59.0555
57.9462
1093.48
509.863
426.255
402.447
391.573
383.665
376.439
369.839
364.475
361.016
359.939
361.459
365.529
371.878
380.049
389.449
399.398
409.188
418.145
425.694
431.424
435.138
436.906
437.068
436.212
435.093
434.51
435.166
437.534
441.783
447.759
455.043
463.067
471.125
477.845
482.756
485.888
487.594
488.516
489.531
491.624
495.627
501.833
509.882
518.739
526.867
532.133
533.212
529.636
521.586
509.773
495.189
478.838
461.572
444.014
426.556
409.405
392.628
376.206
360.077
344.162
328.388
312.696
297.043
281.413
265.805
250.238
234.747
219.381
204.2
189.274
174.681
160.505
146.833
133.753
121.35
109.702
98.8764
88.9269
79.8901
71.7832
64.6038
58.3305
52.9254
48.3373
44.5055
41.364
38.8453
36.8831
35.4143
34.3807
33.729
33.4116
33.3855
33.6127
34.0591
34.6944
35.4918
36.4272
37.4793
38.6292
39.8598
41.1561
42.5045
43.8929
45.3103
46.7468
48.1936
49.6424
51.086
52.5176
53.9312
55.3213
56.6828
58.0115
59.3032
60.5544
61.762
62.9231
64.0352
65.0961
66.1039
67.0566
67.9527
68.7905
69.5685
70.285
70.9386
71.5273
72.0493
72.5023
72.8838
73.1911
73.4209
73.5697
73.6339
73.6097
73.4934
73.2815
72.9713
72.561
72.0499
71.4389
70.7305
69.9293
69.0418
68.0765
67.0443
65.9576
64.8309
63.68
62.5216
61.3732
60.2519
59.1741
58.1547
57.2069
56.341
55.5652
54.8845
54.3017
53.8167
53.4268
53.1271
52.9096
52.7642
52.6778
52.6353
52.62
52.6144
52.6019
52.5566
52.4284
52.2072
51.8857
51.461
50.9353
50.3196
49.6275
48.8639
1078.78
502.57
418.408
396.386
389.256
386.19
384.161
382.583
381.727
382.069
383.991
387.668
393.035
399.812
407.542
415.642
423.458
430.335
435.692
439.099
440.363
439.591
437.221
434.001
430.895
428.927
428.988
431.662
437.11
445.028
454.676
465.013
474.979
483.091
488.786
491.822
492.182
490.094
486.112
481.16
476.467
473.428
472.864
474.92
478.98
483.729
487.454
488.547
485.984
479.522
469.608
457.107
442.996
428.143
413.189
398.533
384.361
370.708
357.511
344.657
332.02
319.475
306.919
294.269
281.47
268.491
255.323
241.978
228.487
214.898
201.272
187.682
174.216
160.968
148.037
135.528
123.543
112.179
101.525
91.6516
82.616
74.4524
67.1741
60.773
55.2219
50.4781
46.4868
43.1861
40.5107
38.3953
36.7768
35.5964
34.8002
34.3394
34.1703
34.2539
34.5557
35.045
35.6947
36.4806
37.3813
38.3777
39.4527
40.5911
41.7792
43.0045
44.2557
45.5224
46.7953
48.0655
49.3251
50.5667
51.7834
52.9689
54.1175
55.224
56.2836
57.2921
58.2457
59.1412
59.9755
60.7464
61.4517
62.0898
62.6593
63.1592
63.5888
63.9476
64.2354
64.4519
64.597
64.6708
64.673
64.6034
64.4617
64.2472
63.9595
63.5978
63.1616
62.6505
62.0647
61.405
60.6731
59.8716
59.0044
58.077
57.0959
56.0695
55.0074
53.9207
52.8214
51.7225
50.6374
49.5795
48.5616
47.5956
46.6921
45.8601
45.1069
44.438
43.857
43.366
42.9651
42.6524
42.4241
42.2737
42.1927
42.1699
42.1924
42.2459
42.3156
42.3887
42.4146
42.3757
42.2606
42.0626
41.7803
41.4197
40.988
40.4792
1034.52
489.085
407.249
387.447
383.965
385.672
388.986
392.806
397.002
401.78
407.378
413.908
421.287
429.24
437.325
444.983
451.596
456.57
459.419
459.867
457.936
454.012
448.852
443.515
439.197
437.014
437.781
441.857
449.122
458.954
470.07
481.13
490.822
498.26
503.299
505.684
505.161
501.614
495.254
486.766
477.3
468.245
460.836
455.804
453.16
452.148
451.411
449.432
445.04
437.747
427.766
415.794
402.709
389.318
376.22
363.771
352.111
341.224
330.994
321.257
311.834
302.552
293.26
283.83
274.164
264.191
253.867
243.171
232.105
220.691
208.972
197.007
184.871
172.655
160.461
148.4
136.589
125.148
114.19
103.821
94.1328
85.198
77.0682
69.7717
63.3139
57.6788
52.8326
48.7277
45.3073
42.5097
40.2717
38.5318
37.2315
36.3168
35.7389
35.4536
35.4215
35.6078
35.9813
36.5146
37.1833
37.9656
38.8421
39.7954
40.8099
41.8712
42.9664
44.0839
45.2125
46.3423
47.464
48.5688
49.6486
50.6959
51.7038
52.666
53.5765
54.4303
55.2225
55.9491
56.6066
57.192
57.703
58.1378
58.4951
58.774
58.9745
59.0966
59.1412
59.1093
59.0022
58.8217
58.5697
58.2482
57.8593
57.4051
56.8876
56.309
55.6712
54.9765
54.2269
53.4251
52.5738
51.6764
50.7367
49.7596
48.7505
47.7157
46.6627
45.5996
44.5353
43.4791
42.4409
41.4302
40.4565
39.5286
38.6544
37.8408
37.0938
36.4183
35.8182
35.2964
34.8544
34.4928
34.2103
34.004
33.869
33.7981
33.7822
33.8108
33.872
33.9545
34.0324
34.0709
34.0582
33.9851
33.847
33.6455
33.3823
33.0437
955.043
471.096
395.693
378.819
378.915
385.282
394.064
403.731
413.727
423.866
434.179
444.658
455.177
465.459
475.083
483.524
490.208
494.601
496.302
495.15
491.319
485.375
478.252
471.14
465.285
461.739
461.156
463.686
468.996
476.373
484.874
493.635
501.706
508.438
513.471
516.38
516.628
513.693
507.316
497.754
485.874
472.957
460.339
449.073
439.684
432.012
425.231
418.171
409.808
399.642
387.797
374.845
361.544
348.587
336.474
325.474
315.651
306.926
299.131
292.055
285.475
279.178
272.97
266.683
260.176
253.334
246.072
238.327
230.064
221.268
211.949
202.141
191.895
181.284
170.401
159.351
148.256
137.242
126.442
115.985
105.994
96.5765
87.8219
79.7978
72.547
66.0879
60.4162
55.5078
51.323
47.8115
44.9162
42.5776
40.7361
39.3351
38.3213
37.6461
37.2654
37.1399
37.2341
37.5169
37.9602
38.5391
39.2313
40.0168
40.8774
41.797
42.7606
43.7546
44.7666
45.7852
46.7995
47.7997
48.7762
49.7204
50.6242
51.4801
52.2811
53.021
53.6942
54.2959
54.8219
55.2686
55.6333
55.9138
56.1088
56.2174
56.2397
56.1763
56.0284
55.7979
55.4872
55.0991
54.637
54.1046
53.5059
52.845
52.1264
51.3543
50.5332
49.6674
48.7614
47.8194
46.8457
45.8447
44.821
43.7793
42.7245
41.6618
40.5969
39.5359
38.4848
37.4502
36.4387
35.4566
34.51
33.6049
32.7464
31.9394
31.188
30.4961
29.8669
29.3034
28.8077
28.3815
28.0253
27.7386
27.5192
27.3634
27.2657
27.2189
27.2147
27.2443
27.2943
27.3319
27.3422
27.3143
27.2414
27.1216
26.9524
26.7157
875.982
464.202
390.756
375.588
378.44
388.764
402.523
417.83
433.718
449.665
465.389
480.685
495.324
509.002
521.317
531.786
539.89
545.148
547.213
545.971
541.632
534.773
526.309
517.377
509.138
502.567
498.278
496.46
496.927
499.251
502.97
507.854
513.117
518.244
522.745
526.012
527.228
525.475
520.01
510.606
497.709
482.301
465.607
448.837
432.945
418.345
404.781
391.546
377.944
363.657
348.852
334.035
319.824
306.746
295.137
285.124
276.67
269.62
263.759
258.845
254.632
250.886
247.391
243.95
240.392
236.564
232.34
227.616
222.312
216.372
209.766
202.489
194.56
186.022
176.945
167.419
157.552
147.472
137.314
127.223
117.342
107.805
98.7371
90.2413
82.3993
75.2673
68.8758
63.2313
58.3193
54.1082
50.5543
47.606
45.2078
43.3035
41.8383
40.7607
40.0229
39.5813
39.3966
39.4334
39.6601
40.048
40.572
41.2082
41.936
42.7365
43.5932
44.4907
45.4148
46.3522
47.2906
48.2188
49.1261
50.0027
50.8392
51.6269
52.3579
53.0247
53.6209
54.1407
54.5791
54.9321
55.1962
55.3688
55.4483
55.4338
55.325
55.1227
54.8283
54.4441
53.973
53.4186
52.7852
52.0776
51.3013
50.4619
49.5655
48.6185
47.6273
46.5983
45.5378
44.452
43.3471
42.2287
41.1025
39.9737
38.8475
37.7286
36.6219
35.5318
34.4629
33.4194
32.4052
31.4242
30.4797
29.5749
28.7126
27.8955
27.1259
26.4062
25.7386
25.1255
24.5689
24.0708
23.6327
23.2554
22.9387
22.6811
22.4799
22.331
22.2289
22.1678
22.1423
22.125
22.1003
22.057
21.9872
21.8867
21.7508
21.5597
787.528
459.038
391.035
377.822
383.324
397.442
416.081
437.094
459.168
481.422
503.242
524.163
543.796
561.759
577.645
591.007
601.386
608.361
611.626
611.079
606.904
599.606
589.991
579.078
567.932
557.501
548.469
541.206
535.809
532.229
530.482
530.762
532.419
535.034
538.051
540.675
541.823
540.246
534.831
524.965
510.71
492.712
472.045
450.078
428.18
407.247
387.459
368.49
349.964
331.783
314.194
297.646
282.598
269.377
258.125
248.819
241.315
235.401
230.836
227.374
224.777
222.817
221.283
219.976
218.708
217.308
215.619
213.504
210.843
207.538
203.518
198.736
193.171
186.833
179.756
172.004
163.667
154.856
145.702
136.349
126.949
117.654
108.611
99.9526
91.7927
84.2221
77.3059
71.0828
65.5666
60.7497
56.6068
53.0998
50.1817
47.8013
45.9057
44.4429
43.3632
42.6205
42.1722
41.9796
42.0079
42.2239
42.5977
43.1041
43.7203
44.4254
45.2005
46.0281
46.892
47.7775
48.6706
49.5582