/*--------------------------------*- C++ -*----------------------------------*\
  =========                 |
  \\      /  F ield         | OpenFOAM: The Open Source CFD Toolbox
   \\    /   O peration     | Website:  https://openfoam.org
    \\  /    A nd           | Version:  9
     \\/     M anipulation  |
\*---------------------------------------------------------------------------*/
FoamFile
{
    format      ascii;
    class       volScalarField;
    location    "0.21";
    object      k;
}
// * * * * * * * * * * * * * * * * * * * * * * * * * * * * * * * * * * * * * //

dimensions      [0 2 -2 0 0 0 0];

internalField   nonuniform List<scalar> 
12225
(
0.353356
0.333605
0.3149
0.298546
0.285565
0.276347
0.270846
0.26874
0.269555
0.272763
0.277845
0.284334
0.291829
0.300007
0.308623
0.317499
0.326603
0.340271
0.433443
0.442364
0.431242
0.427017
0.433745
0.449579
0.471814
0.498002
0.526171
0.554862
0.58308
0.610209
0.635925
0.660128
0.682926
0.704474
0.725623
0.745668
0.394922
0.409527
0.408309
0.403073
0.399332
0.398402
0.400336
0.404831
0.41146
0.419768
0.429332
0.439791
0.450858
0.462325
0.474074
0.486058
0.498449
0.511258
0.379514
0.384434
0.38582
0.384736
0.382745
0.380792
0.379325
0.378542
0.378496
0.379166
0.380492
0.382401
0.384826
0.387714
0.391037
0.394801
0.399077
0.403929
0.374939
0.375767
0.375975
0.375323
0.374057
0.372485
0.370843
0.369287
0.367913
0.366769
0.365876
0.365237
0.364851
0.364714
0.364831
0.365221
0.365927
0.366993
0.373477
0.37251
0.37166
0.370641
0.369398
0.367982
0.366467
0.36492
0.363397
0.361939
0.360571
0.35931
0.358168
0.357156
0.356284
0.35557
0.355043
0.354738
0.37301
0.371281
0.369774
0.368346
0.366919
0.365466
0.363989
0.362499
0.361017
0.35956
0.358144
0.356783
0.355486
0.354263
0.353126
0.35209
0.351178
0.35042
0.372865
0.370834
0.368989
0.36728
0.365661
0.364102
0.362583
0.361096
0.359639
0.358215
0.356828
0.355484
0.354188
0.352948
0.35177
0.350668
0.349659
0.348774
0.372821
0.37068
0.368685
0.366822
0.36507
0.36341
0.361826
0.360305
0.358839
0.357424
0.356057
0.354738
0.353468
0.352251
0.351091
0.349998
0.348986
0.348083
0.372807
0.370628
0.368575
0.36664
0.364815
0.363088
0.361449
0.359889
0.358399
0.356973
0.355607
0.354298
0.353045
0.351847
0.35071
0.349638
0.348644
0.347751
0.372802
0.370611
0.368536
0.366572
0.364712
0.362949
0.361277
0.359688
0.358176
0.356735
0.355361
0.35405
0.352801
0.351614
0.350489
0.349432
0.348452
0.347569
0.3728
0.370604
0.368522
0.366547
0.364674
0.362897
0.361209
0.359605
0.35808
0.356629
0.355247
0.353933
0.352683
0.351498
0.350378
0.349327
0.348353
0.347472
0.372798
0.3706
0.368515
0.366536
0.364657
0.362873
0.361178
0.359566
0.358034
0.356576
0.35519
0.353872
0.352621
0.351436
0.350318
0.349269
0.348296
0.347412
0.372797
0.370597
0.36851
0.366529
0.364648
0.36286
0.361162
0.359547
0.358012
0.356551
0.355163
0.353844
0.352593
0.351408
0.35029
0.349241
0.348265
0.347376
0.372796
0.370595
0.368506
0.366524
0.364641
0.362853
0.361153
0.359538
0.358001
0.356541
0.355153
0.353835
0.352584
0.351401
0.350283
0.349233
0.348253
0.347354
0.372795
0.370593
0.368503
0.36652
0.364637
0.362848
0.361148
0.359532
0.357996
0.356537
0.35515
0.353833
0.352584
0.3514
0.350282
0.34923
0.348243
0.347334
0.372795
0.370591
0.368501
0.366517
0.364633
0.362844
0.361144
0.359528
0.357993
0.356534
0.355148
0.353831
0.352582
0.351398
0.350278
0.34922
0.348225
0.347302
0.372794
0.37059
0.368499
0.366515
0.36463
0.362841
0.361141
0.359526
0.35799
0.356531
0.355145
0.353827
0.352576
0.351388
0.350262
0.349196
0.348189
0.347251
0.372794
0.37059
0.368498
0.366514
0.36463
0.36284
0.36114
0.359525
0.357989
0.356528
0.35514
0.353819
0.352564
0.35137
0.350236
0.349159
0.348137
0.347182
0.372794
0.37059
0.368499
0.366515
0.364631
0.362842
0.361143
0.359527
0.357991
0.356529
0.355138
0.353814
0.352554
0.351355
0.350213
0.349126
0.348092
0.347123
0.372794
0.370591
0.368501
0.366518
0.364635
0.362848
0.361149
0.359534
0.357998
0.356536
0.355144
0.353819
0.352556
0.351353
0.350207
0.349114
0.348074
0.347096
0.372794
0.370592
0.368505
0.366524
0.364645
0.362861
0.361167
0.359556
0.358024
0.356566
0.355178
0.353855
0.352594
0.351392
0.350245
0.34915
0.348107
0.347125
0.372796
0.370598
0.368518
0.366549
0.364684
0.362917
0.36124
0.359647
0.358132
0.356689
0.355313
0.354
0.352746
0.351548
0.350402
0.349305
0.348258
0.347269
0.372804
0.37063
0.36859
0.366674
0.364869
0.36316
0.361538
0.359991
0.358512
0.357094
0.355733
0.354425
0.353168
0.351959
0.350798
0.349682
0.348612
0.347599
0.372854
0.370814
0.368962
0.367244
0.365612
0.364036
0.362501
0.360999
0.35953
0.358096
0.3567
0.355346
0.354036
0.352773
0.35156
0.350397
0.349286
0.348239
0.37316
0.371744
0.370525
0.369277
0.367906
0.366411
0.364832
0.363214
0.361596
0.360009
0.358474
0.357007
0.355617
0.354312
0.353093
0.35196
0.350914
0.349962
0.374765
0.375722
0.375922
0.374983
0.37328
0.371228
0.369084
0.366996
0.365053
0.363303
0.36177
0.360459
0.359369
0.358488
0.357805
0.357304
0.356968
0.356785
0.382612
0.390983
0.391049
0.38716
0.382642
0.378669
0.375568
0.373393
0.372104
0.37162
0.371845
0.372683
0.374043
0.37584
0.377997
0.38045
0.383141
0.386002
0.405621
0.410632
0.401158
0.391971
0.386941
0.38609
0.388634
0.39375
0.40072
0.40897
0.418066
0.427682
0.437579
0.447578
0.457555
0.467424
0.477146
0.486635
0.360271
0.34679
0.333788
0.32151
0.310395
0.300694
0.292494
0.285776
0.280453
0.276402
0.273483
0.271559
0.270494
0.270165
0.270461
0.271283
0.272547
0.27417
0.126995
0.166408
0.205162
0.233168
0.251856
0.26375
0.270569
0.27333
0.272598
0.268742
0.263442
0.257963
0.251722
0.244299
0.235353
0.22468
0.211622
0.198795
0.188914
0.182637
0.180947
0.184738
0.194389
0.209657
0.229837
0.254032
0.281335
0.310909
0.342007
0.373979
0.406292
0.438533
0.470408
0.501744
0.532483
0.562711
0.592702
0.620673
0.645168
0.666107
0.683419
0.697031
0.706891
0.712986
0.715349
0.714068
0.709293
0.701232
0.690158
0.676401
0.660354
0.642474
0.62329
0.60343
0.583649
0.564851
0.547927
0.533557
0.52034
0.507676
0.495596
0.484227
0.473705
0.464151
0.455666
0.448325
0.442185
0.437277
0.433612
0.431185
0.429972
0.429934
0.431024
0.433181
0.436342
0.440436
0.445388
0.451123
0.457567
0.464643
0.472278
0.480398
0.488935
0.497818
0.506983
0.516365
0.525902
0.535535
0.545209
0.554869
0.564466
0.573956
0.583298
0.592458
0.601406
0.610123
0.618594
0.626813
0.634781
0.642509
0.650012
0.657315
0.664446
0.671442
0.678339
0.68518
0.692006
0.698859
0.705781
0.71281
0.719979
0.727317
0.73485
0.742593
0.750557
0.758745
0.767154
0.775772
0.78458
0.793554
0.802662
0.811867
0.821128
0.830398
0.839627
0.848763
0.857748
0.866527
0.875042
0.883234
0.891049
0.898434
0.905342
0.91173
0.917567
0.922829
0.927506
0.931599
0.935124
0.938109
0.940594
0.942632
0.944281
0.945609
0.946685
0.94758
0.948361
0.949087
0.949811
0.950569
0.951379
0.952237
0.953113
0.953948
0.954655
0.955118
0.955198
0.954733
0.953543
0.951448
0.948291
0.943983
0.93855
0.932047
0.92456
0.916204
0.907094
0.897344
0.887064
0.876365
0.865346
0.854086
0.842636
0.830999
0.819109
0.806782
0.793663
0.778934
0.761685
0.736988
0.264016
0.348821
0.394315
0.418607
0.430822
0.436101
0.437191
0.435711
0.432894
0.430597
0.42945
0.427663
0.425579
0.423385
0.421085
0.417993
0.411758
0.404005
0.400188
0.407402
0.430288
0.467933
0.515107
0.565786
0.615913
0.664134
0.711005
0.757809
0.805704
0.855405
0.907173
0.960931
1.01635
1.07295
1.13013
1.18717
1.24307
1.29536
1.34415
1.38883
1.42868
1.46301
1.49121
1.51277
1.52732
1.53462
1.53461
1.52738
1.51317
1.49239
1.46555
1.43327
1.39624
1.35521
1.31091
1.2641
1.21541
1.16594
1.11819
1.07136
1.02559
0.981209
0.938551
0.897916
0.859556
0.823668
0.790399
0.759853
0.732089
0.707126
0.684954
0.665531
0.64879
0.634646
0.622995
0.613721
0.606699
0.601794
0.598871
0.597789
0.598408
0.60059
0.604197
0.609096
0.615155
0.622247
0.630251
0.639049
0.648529
0.658588
0.669126
0.680053
0.691289
0.702763
0.714411
0.726185
0.738044
0.74996
0.761914
0.7739
0.785919
0.797981
0.810103
0.822307
0.834617
0.847059
0.859662
0.872447
0.885435
0.89864
0.912071
0.925726
0.939598
0.953668
0.96791
0.982287
0.996756
1.01126
1.02575
1.04015
1.05438
1.06839
1.08208
1.09537
1.10819
1.12045
1.13206
1.14294
1.15302
1.16222
1.17048
1.17774
1.18394
1.18906
1.19307
1.19596
1.19775
1.19846
1.19815
1.19687
1.1947
1.19173
1.18805
1.18376
1.17895
1.17371
1.16812
1.16226
1.15617
1.14987
1.14335
1.13659
1.12951
1.12202
1.114
1.10531
1.09581
1.08538
1.0739
1.06129
1.0475
1.03251
1.01636
0.9993
0.981655
0.96384
0.946039
0.928332
0.910804
0.89354
0.876624
0.860134
0.844136
0.828677
0.813782
0.799449
0.785633
0.772564
0.759688
0.75621
0.381105
0.45991
0.496506
0.512586
0.518551
0.520395
0.521303
0.523265
0.528623
0.539085
0.551148
0.562941
0.572528
0.578352
0.579857
0.580569
0.586035
0.603157
0.637497
0.68961
0.754008
0.822493
0.888687
0.950082
1.00739
1.06278
1.11847
1.1759
1.23572
1.2979
1.36209
1.42778
1.49442
1.56151
1.62857
1.69517
1.75896
1.81931
1.87553
1.92681
1.97227
2.01104
2.04233
2.06544
2.07985
2.0852
2.08135
2.06835
2.04646
2.01613
1.97795
1.93267
1.8811
1.82415
1.7627
1.69769
1.63002
1.5606
1.49268
1.42619
1.36108
1.29773
1.23656
1.178
1.12239
1.07002
1.02114
0.975898
0.934422
0.896775
0.862977
0.833008
0.806812
0.784304
0.76537
0.749876
0.737668
0.728577
0.722423
0.719016
0.718162
0.719663
0.723323
0.728945
0.736338
0.745315
0.755697
0.767311
0.779993
0.793589
0.807953
0.822954
0.838469
0.854387
0.870614
0.887065
0.903671
0.920377
0.93714
0.953931
0.970732
0.987539
1.00435
1.02119
1.03805
1.05498
1.07198
1.08908
1.1063
1.12364
1.14113
1.15875
1.1765
1.19437
1.21231
1.23031
1.24831
1.26627
1.28411
1.30178
1.31919
1.33628
1.35295
1.36913
1.38472
1.39964
1.4138
1.42712
1.43949
1.45086
1.46113
1.47024
1.47814
1.48478
1.49012
1.49415
1.49687
1.49829
1.49845
1.4974
1.49521
1.49195
1.48772
1.48261
1.47673
1.47016
1.463
1.45534
1.44723
1.43872
1.42982
1.42052
1.41078
1.40054
1.38971
1.37818
1.36585
1.35263
1.33845
1.32328
1.30709
1.28989
1.27163
1.25225
1.23171
1.20999
1.18745
1.16448
1.14126
1.11797
1.09483
1.07201
1.04966
1.02787
1.0066
0.98568
0.9647
0.942819
0.918365
0.891112
0.461312
0.533382
0.579458
0.603587
0.614595
0.619623
0.623999
0.632326
0.64912
0.66821
0.688724
0.706648
0.720308
0.730238
0.740786
0.759951
0.79603
0.853562
0.930419
1.01862
1.10856
1.19334
1.27052
1.34117
1.40788
1.47323
1.53899
1.60599
1.67442
1.74407
1.81463
1.88574
1.95704
2.02816
2.09866
2.16805
2.23373
2.29552
2.35274
2.40449
2.44981
2.48775
2.5174
2.53798
2.54887
2.54961
2.54
2.52006
2.49002
2.45033
2.40163
2.34472
2.28047
2.20987
2.13391
2.05363
1.97007
1.88429
1.79975
1.71678
1.63528
1.55567
1.47849
1.40424
1.33337
1.26627
1.20324
1.14453
1.09032
1.04071
0.995778
0.955518
0.919898
0.888846
0.862256
0.839993
0.821899
0.807796
0.797487
0.79076
0.78739
0.787146
0.789787
0.79507
0.802754
0.8126
0.824372
0.837847
0.852807
0.869049
0.886379
0.904621
0.92361
0.943198
0.963252
0.983657
1.00431
1.02513
1.04605
1.06702
1.08799
1.10894
1.12986
1.15074
1.17159
1.19241
1.21322
1.23402
1.25484
1.27567
1.29652
1.31739
1.33826
1.35912
1.37994
1.4007
1.42133
1.4418
1.46204
1.482
1.5016
1.52077
1.53943
1.5575
1.5749
1.59153
1.60732
1.62218
1.63603
1.64878
1.66036
1.67071
1.67975
1.68744
1.69374
1.69863
1.70209
1.70414
1.70479
1.70407
1.70205
1.69879
1.69437
1.68888
1.68242
1.67507
1.66694
1.65811
1.64866
1.63865
1.62811
1.61707
1.60552
1.59343
1.58076
1.56746
1.55347
1.53875
1.52325
1.50695
1.48981
1.47178
1.45281
1.43282
1.41174
1.38953
1.36622
1.34201
1.31726
1.29215
1.26691
1.24172
1.21674
1.19207
1.16765
1.14326
1.11841
1.09209
1.0627
1.02923
0.544917
0.645084
0.714892
0.74834
0.760052
0.762799
0.767092
0.781939
0.798444
0.817347
0.837327
0.856509
0.87483
0.895474
0.924925
0.970759
1.03781
1.12526
1.22664
1.33295
1.43653
1.53327
1.62248
1.70561
1.78468
1.86145
1.93705
2.01206
2.08669
2.16099
2.23489
2.30827
2.38091
2.45249
2.52249
2.5901
2.65364
2.71331
2.76845
2.81818
2.8615
2.89738
2.9248
2.94287
2.95082
2.94809
2.93433
2.90948
2.8737
2.82742
2.77125
2.70599
2.63256
2.55195
2.46522
2.37346
2.27775
2.17933
2.08202
1.98567
1.8904
1.79677
1.70541
1.61695
1.53193
1.45085
1.37414
1.30213
1.2351
1.17324
1.11667
1.06546
1.01961
0.979071
0.94375
0.913522
0.88823
0.867697
0.851722
0.840087
0.832559
0.828892
0.828826
0.832095
0.838423
0.847533
0.859149
0.872999
0.888819
0.906356
0.925371
0.94564
0.966954
0.989124
1.01198
1.03537
1.05916
1.08323
1.1075
1.13187
1.15629
1.18072
1.20511
1.22944
1.25369
1.27787
1.30195
1.32595
1.34987
1.37368
1.3974
1.42101
1.4445
1.46783
1.49098
1.51392
1.5366
1.55898
1.58099
1.60258
1.62368
1.64423
1.66416
1.68339
1.70184
1.71944
1.73611
1.75176
1.76633
1.77975
1.79193
1.80281
1.81234
1.82047
1.82715
1.83236
1.83607
1.8383
1.83904
1.83833
1.8362
1.83272
1.82794
1.82194
1.81482
1.80667
1.79759
1.78766
1.77697
1.7656
1.75361
1.74104
1.72793
1.7143
1.70014
1.68547
1.67027
1.65452
1.63822
1.62133
1.60381
1.58561
1.56663
1.5468
1.52604
1.50428
1.48152
1.45776
1.43322
1.40813
1.38269
1.35707
1.33141
1.30577
1.2801
1.25412
1.22734
1.19883
1.16733
1.1323
0.620392
0.79264
0.900993
0.949011
0.96509
0.969195
0.975096
0.977074
0.981319
0.989837
1.00252
1.01935
1.04205
1.07462
1.12235
1.18957
1.27708
1.38124
1.49528
1.61189
1.72554
1.83329
1.93442
2.02949
2.11949
2.20537
2.28788
2.36754
2.44476
2.51986
2.59303
2.66438
2.73389
2.80137
2.86649
2.92784
2.98605
3.04122
3.09277
3.13984
3.18139
3.21629
3.2434
3.2616
3.26992
3.26755
3.25394
3.22883
3.19223
3.14445
3.08605
3.01775
2.94045
2.85514
2.76286
2.66469
2.56157
2.45597
2.35045
2.24467
2.13911
2.03445
1.93146
1.83085
1.7333
1.63942
1.54978
1.46485
1.38504
1.31067
1.24199
1.17914
1.12222
1.07123
1.02612
0.9868
0.953108
0.924868
0.901874
0.883901
0.87071
0.862046
0.857643
0.857224
0.860501
0.86718
0.876958
0.889535
0.904611
0.921894
0.941104
0.961973
0.984252
1.00771
1.03214
1.05735
1.08317
1.10945
1.13608
1.16293
1.18993
1.21699
1.24407
1.2711
1.29806
1.32492
1.35164
1.37822
1.40463
1.43084
1.45685
1.48263
1.50814
1.53337
1.55826
1.58279
1.6069
1.63055
1.65368
1.67624
1.69816
1.71939
1.73987
1.75952
1.77828
1.79608
1.81286
1.82855
1.84308
1.8564
1.86843
1.87912
1.88843
1.89631
1.90272
1.90763
1.91102
1.91289
1.91323
1.91208
1.90944
1.90538
1.89994
1.89319
1.88522
1.87612
1.86597
1.85488
1.84293
1.83023
1.81685
1.80286
1.78834
1.77335
1.75793
1.74214
1.72601
1.70956
1.6928
1.6757
1.65823
1.64032
1.62189
1.60284
1.58309
1.56256
1.5412
1.51898
1.49591
1.47217
1.44793
1.42333
1.39847
1.37339
1.34799
1.32202
1.29501
1.26619
1.23469
1.20045
0.642614
0.962121
1.12643
1.19923
1.22725
1.23071
1.21653
1.19942
1.18641
1.1806
1.18344
1.19648
1.22217
1.26379
1.32436
1.40503
1.50402
1.61677
1.73723
1.85959
1.97943
2.09404
2.20221
2.30362
2.39847
2.4872
2.57033
2.64845
2.72213
2.79193
2.85832
2.92168
2.9822
3.03992
3.0947
3.14627
3.19643
3.24536
3.29257
3.33724
3.3783
3.4145
3.44449
3.46688
3.48036
3.48376
3.47618
3.45704
3.4261
3.38346
3.32954
3.26497
3.19057
3.10725
3.01602
2.9179
2.81405
2.70812
2.59996
2.49004
2.37906
2.26781
2.15712
2.04779
1.9406
1.83629
1.73556
1.63904
1.54731
1.46085
1.38008
1.30531
1.23678
1.1746
1.11884
1.06945
1.02633
0.989312
0.958199
0.932753
0.912719
0.897825
0.887791
0.882328
0.88114
0.883922
0.890362
0.900145
0.912953
0.92847
0.946387
0.966404
0.988239
1.01162
1.03631
1.06208
1.08873
1.11608
1.14397
1.17226
1.20083
1.22958
1.25843
1.2873
1.31614
1.34487
1.37346
1.40187
1.43004
1.45795
1.48556
1.51281
1.53968
1.56611
1.59206
1.61749
1.64234
1.66655
1.69008
1.71288
1.73488
1.75603
1.77628
1.79558
1.81385
1.83106
1.84715
1.86207
1.87576
1.88818
1.89928
1.90903
1.91737
1.92428
1.92973
1.9337
1.93616
1.9371
1.93653
1.93445
1.93089
1.92587
1.91945
1.91169
1.90265
1.89243
1.8811
1.86877
1.85554
1.84152
1.82679
1.81148
1.79567
1.77948
1.76298
1.74629
1.72946
1.71255
1.69559
1.67858
1.66148
1.64423
1.62676
1.60898
1.59077
1.57207
1.55278
1.53285
1.51221
1.49086
1.46892
1.44648
1.42362
1.40033
1.37649
1.35187
1.32605
1.29845
1.26853
1.23657
0.641404
1.14491
1.36612
1.46638
1.49716
1.48721
1.45937
1.42761
1.40037
1.38264
1.37759
1.38772
1.41541
1.46263
1.53023
1.61717
1.72031
1.83489
1.95559
2.07744
2.19654
2.31019
2.41673
2.51533
2.60574
2.68812
2.76293
2.83084
2.89264
2.94916
3.00122
3.04952
3.09462
3.13688
3.17643
3.21545
3.25569
3.2974
3.34017
3.38324
3.42556
3.46579
3.50236
3.53355
3.55762
3.57288
3.57792
3.5717
3.55359
3.52341
3.48136
3.42793
3.36384
3.2899
3.20707
3.11646
3.02095
2.92081
2.81658
2.70895
2.5987
2.48664
2.3736
2.26045
2.14801
2.03714
1.92863
1.82327
1.72179
1.62487
1.53312
1.44705
1.3671
1.29358
1.22672
1.16662
1.11328
1.06662
1.02649
0.992652
0.964852
0.942799
0.926188
0.914704
0.908029
0.905842
0.907817
0.91363
0.922952
0.935455
0.950814
0.96871
0.988837
1.0109
1.03463
1.05977
1.08609
1.11337
1.14144
1.17011
1.19925
1.22871
1.2584
1.28819
1.31802
1.34778
1.37741
1.40684
1.43601
1.46484
1.49328
1.52128
1.54876
1.57567
1.60195
1.62754
1.65239
1.67644
1.69962
1.7219
1.74322
1.76352
1.78276
1.8009
1.8179
1.83371
1.8483
1.86163
1.87368
1.88441
1.89381
1.90184
1.90849
1.91373
1.91754
1.91992
1.92084
1.92031
1.91832
1.91487
1.90998
1.90367
1.89598
1.88695
1.87666
1.86518
1.85258
1.83898
1.82446
1.80915
1.79316
1.77662
1.75966
1.7424
1.725
1.70756
1.6902
1.67301
1.65603
1.63928
1.62276
1.6064
1.59015
1.57391
1.55759
1.54109
1.5243
1.50713
1.48949
1.47126
1.45239
1.43295
1.41296
1.39237
1.37106
1.3488
1.32525
1.30002
1.27278
1.24403
0.668948
1.3188
1.5755
1.68803
1.72294
1.71348
1.68201
1.64393
1.60967
1.58602
1.57739
1.58669
1.61576
1.66532
1.73466
1.82146
1.92194
2.03145
2.14515
2.2586
2.36818
2.47118
2.56578
2.65092
2.72617
2.79168
2.84799
2.896
2.93684
2.97178
3.00211
3.02903
3.05363
3.0768
3.09926
3.12507
3.15516
3.1896
3.22811
3.27011
3.31472
3.36071
3.40647
3.45003
3.48917
3.52161
3.54524
3.55837
3.55983
3.54902
3.52586
3.49066
3.44402
3.38656
3.32008
3.24598
3.16486
3.07733
2.98404
2.88567
2.78293
2.67661
2.5675
2.45646
2.34435
2.23204
2.12042
2.01038
1.90277
1.79843
1.69816
1.60268
1.51265
1.42861
1.35102
1.2802
1.21635
1.15953
1.10972
1.06676
1.03043
1.00046
0.976525
0.958287
0.945393
0.937492
0.934233
0.935269
0.940256
0.948854
0.960727
0.975545
0.992986
1.01274
1.03452
1.05803
1.08304
1.10929
1.13658
1.16471
1.1935
1.22279
1.25244
1.28232
1.31232
1.34231
1.3722
1.40189
1.43129
1.46032
1.48888
1.5169
1.5443
1.57099
1.59692
1.622
1.64616
1.66935
1.69151
1.71258
1.73251
1.75125
1.76877
1.78504
1.80002
1.81369
1.82604
1.83706
1.84672
1.85504
1.86201
1.86762
1.87188
1.87479
1.87634
1.87654
1.87538
1.87286
1.86897
1.86374
1.85715
1.84924
1.84002
1.82954
1.81785
1.805
1.79109
1.7762
1.76042
1.74389
1.72672
1.70906
1.69107
1.67289
1.6547
1.63665
1.61886
1.60146
1.58453
1.5681
1.55219
1.53676
1.52177
1.50713
1.49277
1.47856
1.46439
1.45015
1.4357
1.42091
1.40552
1.38953
1.37291
1.35558
1.3374
1.31817
1.29761
1.27545
1.25156
1.22647
0.723115
1.42744
1.71115
1.84506
1.89538
1.89616
1.8706
1.83535
1.80224
1.77929
1.77156
1.78198
1.8118
1.86081
1.92735
2.00844
2.10014
2.19796
2.29744
2.39451
2.48581
2.56873
2.64151
2.70314
2.75336
2.79254
2.82162
2.842
2.85539
2.86369
2.86881
2.87254
2.87646
2.8818
2.89145
2.90688
2.92819
2.95537
2.98841
3.02729
3.07183
3.12141
3.17486
3.2303
3.28525
3.33679
3.38198
3.4183
3.44381
3.45725
3.45821
3.44667
3.42327
3.38945
3.34603
3.2937
3.23303
3.16454
3.08876
3.00627
2.91766
2.82363
2.7249
2.62225
2.51653
2.40862
2.29941
2.18984
2.08084
1.97336
1.86833
1.76665
1.66917
1.57666
1.48984
1.40926
1.3354
1.26854
1.20886
1.15637
1.11099
1.07249
1.04061
1.015
0.995287
0.981098
0.972045
0.967746
0.96783
0.971934
0.979705
0.990799
1.00488
1.02163
1.04074
1.06191
1.08487
1.10936
1.13514
1.162
1.18972
1.21813
1.24706
1.27634
1.30583
1.33539
1.36489
1.39421
1.42324
1.45185
1.47994
1.50741
1.53416
1.56008
1.58509
1.60911
1.63205
1.65385
1.67444
1.69375
1.71175
1.72839
1.74363
1.75746
1.76986
1.78082
1.79035
1.79845
1.80514
1.81045
1.81439
1.817
1.81829
1.8183
1.81704
1.81454
1.8108
1.80583
1.79964
1.79224
1.78364
1.77384
1.76286
1.75074
1.73751
1.72323
1.70796
1.69177
1.67478
1.65709
1.63884
1.62017
1.60125
1.58225
1.56336
1.54474
1.52656
1.50894
1.492
1.4758
1.46037
1.44571
1.43179
1.41856
1.40593
1.3938
1.38205
1.37053
1.3591
1.34757
1.3357
1.32322
1.3101
1.2962
1.2814
1.26548
1.24823
1.22948
1.2092
1.18787
0.764331
1.48372
1.78837
1.94283
2.0126
2.03039
2.01874
1.99438
1.96961
1.95293
1.94967
1.9626
1.99255
2.03872
2.09897
2.17009
2.24816
2.32896
2.40837
2.48269
2.54885
2.60459
2.64847
2.67994
2.69929
2.7076
2.70662
2.69858
2.68599
2.67139
2.65713
2.64526
2.63737
2.63455
2.63904
2.64834
2.66164
2.67904
2.70136
2.7298
2.76561
2.80963
2.86188
2.92128
2.9856
3.05157
3.11529
3.17332
3.22274
3.26116
3.28809
3.30278
3.30635
3.29944
3.28257
3.25614
3.22051
3.17601
3.12298
3.06181
2.99295
2.91695
2.83442
2.74605
2.6526
2.55489
2.4538
2.35025
2.24518
2.13959
2.03446
1.93082
1.82964
1.7319
1.6385
1.55028
1.46793
1.39206
1.32308
1.26126
1.20671
1.15939
1.11912
1.08564
1.0586
1.03763
1.0223
1.01222
1.00697
1.00617
1.00942
1.01637
1.02666
1.03995
1.05592
1.07427
1.0947
1.11693
1.14071
1.16579
1.19196
1.21899
1.2467
1.2749
1.30341
1.33208
1.36075
1.38926
1.41748
1.44526
1.47248
1.49901
1.52473
1.54952
1.57327
1.59588
1.61727
1.63735
1.65605
1.6733
1.68905
1.70327
1.71592
1.72699
1.73647
1.74438
1.75073
1.75556
1.7589
1.76081
1.76132
1.76051
1.75841
1.75509
1.7506
1.74497
1.73824
1.73043
1.72156
1.71165
1.70071
1.68876
1.67579
1.66184
1.64693
1.6311
1.6144
1.59691
1.57871
1.5599
1.54062
1.52101
1.50124
1.48149
1.46193
1.44275
1.42413
1.4062
1.38909
1.3729
1.35768
1.34346
1.33023
1.31797
1.3066
1.29605
1.28619
1.27687
1.26793
1.25916
1.25036
1.24107
1.23117
1.22053
1.20896
1.19628
1.18231
1.16695
1.1502
1.13244
0.786695
1.49881
1.8157
1.98805
2.07886
2.11802
2.12609
2.11869
2.10767
2.10146
2.10531
2.12188
2.15173
2.1938
2.2458
2.30452
2.36624
2.42704
2.48322
2.53151
2.56939
2.59524
2.60841
2.60935
2.59948
2.58114
2.55724
2.53096
2.50535
2.48296
2.46566
2.45452
2.44999
2.45227
2.45804
2.46285
2.46574
2.46747
2.47001
2.47625
2.48946
2.51271
2.54798
2.59578
2.65494
2.72264
2.79402
2.86497
2.93212
2.99022
3.03926
3.07872
3.10846
3.12851
3.13896
3.13989
3.13136
3.11343
3.0862
3.04985
3.00462
2.95088
2.88908
2.81976
2.74357
2.66123
2.57352
2.48128
2.38544
2.28693
2.18675
2.08594
1.98556
1.88668
1.79035
1.6976
1.60937
1.52651
1.44973
1.37959
1.31645
1.26052
1.21182
1.17024
1.13554
1.10737
1.08537
1.0691
1.05814
1.05207
1.05048
1.05297
1.05916
1.0687
1.08124
1.09646
1.11406
1.13373
1.1552
1.17821
1.20251
1.22787
1.25407
1.2809
1.30817
1.33568
1.36326
1.39072
1.41791
1.44466
1.47081
1.49622
1.52075
1.54426
1.56662
1.58772
1.60746
1.62574
1.64248
1.6576
1.67106
1.6828
1.69281
1.70107
1.70759
1.71238
1.71547
1.71693
1.7168
1.71516
1.71208
1.70765
1.70195
1.69505
1.68704
1.67799
1.66796
1.65699
1.64512
1.63239
1.61881
1.6044
1.58919
1.57317
1.55638
1.53884
1.5206
1.50172
1.48226
1.46232
1.44201
1.42148
1.40088
1.38038
1.36015
1.34037
1.32121
1.30283
1.28535
1.26889
1.25353
1.23931
1.22626
1.21438
1.20363
1.19394
1.18521
1.17731
1.17005
1.16324
1.15668
1.14992
1.14267
1.13474
1.12597
1.11615
1.10512
1.09281
1.07923
1.06464
0.79201
1.48183
1.80403
1.99122
2.10293
2.16554
2.19677
2.21031
2.21684
2.22419
2.23739
2.25897
2.28942
2.32766
2.37144
2.41774
2.46313
2.50408
2.53741
2.5605
2.57165
2.5703
2.55713
2.53409
2.50427
2.47147
2.43974
2.41271
2.39309
2.38226
2.3802
2.38561
2.39631
2.40914
2.41658
2.4153
2.40473
2.38607
2.36212
2.33704
2.31595
2.3045
2.30698
2.32589
2.36189
2.41412
2.47703
2.54545
2.61563
2.68391
2.7478
2.80566
2.85644
2.8995
2.93437
2.96068
2.9781
2.98637
2.98528
2.97472
2.9547
2.92536
2.88694
2.83983
2.78447
2.72144
2.65138
2.575
2.49309
2.4065
2.31616
2.22304
2.12819
2.03269
1.93768
1.84427
1.7536
1.6667
1.58454
1.50797
1.43763
1.37402
1.31744
1.26798
1.2256
1.19008
1.16112
1.13836
1.12137
1.10972
1.10298
1.10074
1.10259
1.10815
1.11704
1.12894
1.14351
1.16043
1.17942
1.20019
1.22247
1.24601
1.27057
1.29591
1.32182
1.34808
1.37448
1.40083
1.42694
1.45261
1.47769
1.50198
1.52535
1.54762
1.56866
1.58835
1.60654
1.62315
1.63808
1.65124
1.66257
1.67204
1.6796
1.68525
1.68899
1.69086
1.69088
1.68913
1.68567
1.6806
1.674
1.66598
1.65666
1.64614
1.63452
1.6219
1.60838
1.59402
1.57889
1.56306
1.54654
1.52939
1.51162
1.49326
1.47433
1.45485
1.43487
1.41441
1.39356
1.37238
1.35098
1.32948
1.30801
1.28671
1.26576
1.24532
1.22552
1.20654
1.18848
1.17148
1.15561
1.14095
1.12755
1.11543
1.10459
1.09498
1.08652
1.07911
1.07258
1.06676
1.06142
1.05626
1.0508
1.04482
1.03813
1.03053
1.02185
1.01203
1.00106
0.989056
0.781948
1.44147
1.76468
1.96417
2.09567
2.18213
2.23815
2.27503
2.3018
2.32534
2.35026
2.37899
2.41207
2.44855
2.48639
2.52285
2.55484
2.57935
2.59376
2.59628
2.58623
2.56437
2.53294
2.49561
2.45701
2.42215
2.39552
2.38039
2.37825
2.38853
2.40865
2.43438
2.46095
2.48013
2.48724
2.47996
2.45758
2.4209
2.3725
2.31676
2.25944
2.20881
2.17128
2.15119
2.15102
2.17087
2.20838
2.25967
2.32028
2.38597
2.45324
2.51941
2.58254
2.64117
2.69418
2.74063
2.77971
2.81076
2.83321
2.84666
2.85085
2.84565
2.83109
2.80731
2.77456
2.73319
2.68364
2.62644
2.56218
2.49155
2.41532
2.33434
2.24954
2.16196
2.07268
1.98286
1.89369
1.80635
1.722
1.64168
1.56636
1.49678
1.43356
1.37706
1.32748
1.28482
1.24894
1.21956
1.19634
1.17889
1.16677
1.15956
1.15685
1.15822
1.1633
1.17171
1.18311
1.19717
1.21357
1.23201
1.25221
1.27388
1.29676
1.32059
1.34514
1.37016
1.39543
1.42071
1.44581
1.47051
1.49462
1.51795
1.54031
1.56154
1.58147
1.59997
1.61689
1.63211
1.64552
1.65704
1.6666
1.67414
1.67963
1.68305
1.68441
1.68373
1.68105
1.67645
1.67
1.66179
1.65195
1.64058
1.62782
1.61379
1.59862
1.58244
1.56537
1.54751
1.52896
1.5098
1.4901
1.46991
1.44929
1.42827
1.40688
1.38516
1.36314
1.34087
1.3184
1.2958
1.27314
1.25053
1.22808
1.20591
1.18416
1.16295
1.14242
1.1227
1.1039
1.08613
1.06947
1.05401
1.03981
1.02692
1.01534
1.00508
0.996086
0.988275
0.981525
0.975674
0.970532
0.965893
0.961223
0.956272
0.950806
0.944618
0.937538
0.929488
0.920428
0.910344
0.757649
1.38506
1.70762
1.91802
2.06823
2.17822
2.25975
2.32164
2.37106
2.41363
2.45334
2.49247
2.53167
2.57023
2.60642
2.63786
2.66185
2.67585
2.67785
2.66678
2.64294
2.60823
2.56619
2.52173
2.4805
2.44794
2.42839
2.42431
2.436
2.46145
2.49571
2.53263
2.56511
2.58579
2.59211
2.58191
2.5537
2.50715
2.44371
2.3671
2.28332
2.19995
2.12479
2.0646
2.02432
2.00642
2.01073
2.03481
2.07488
2.12673
2.1864
2.25051
2.31633
2.38165
2.44468
2.50389
2.55801
2.60597
2.64688
2.68005
2.70498
2.7213
2.72878
2.72735
2.71699
2.69781
2.67
2.63382
2.58963
2.53787
2.47909
2.41393
2.34313
2.26758
2.18825
2.10623
2.02268
1.93882
1.8559
1.77514
1.69769
1.62458
1.55666
1.49463
1.43895
1.38989
1.34752
1.31174
1.28235
1.25902
1.2414
1.22907
1.22162
1.21865
1.21976
1.22456
1.23269
1.24379
1.25754
1.27361
1.2917
1.31149
1.33272
1.35509
1.37834
1.40221
1.42644
1.4508
1.47504
1.49894
1.52228
1.54486
1.56647
1.58693
1.60605
1.62368
1.63967
1.65387
1.66617
1.67646
1.68467
1.69074
1.69461
1.69627
1.69571
1.69297
1.68807
1.68108
1.67208
1.66117
1.64846
1.63409
1.61819
1.60091
1.58238
1.56277
1.54221
1.52084
1.49879
1.47617
1.45308
1.42962
1.40586
1.38187
1.3577
1.33341
1.30903
1.28463
1.26024
1.23594
1.2118
1.18787
1.16427
1.14108
1.11839
1.09632
1.07495
1.05439
1.03472
1.01604
0.998407
0.981911
0.96661
0.952558
0.939791
0.928325
0.918145
0.909204
0.901418
0.894663
0.888784
0.8836
0.878778
0.873906
0.86876
0.863125
0.856822
0.849757
0.841852
0.832988
0.715593
1.31364
1.63805
1.86039
2.02969
2.16391
2.27258
2.36232
2.43826
2.50425
2.56353
2.61804
2.66847
2.71439
2.75446
2.78672
2.80895
2.8191
2.81568
2.79822
2.76767
2.72663
2.67931
2.6311
2.58784
2.55475
2.53558
2.53191
2.54307
2.56626
2.59701
2.63016
2.65885
2.6776
2.68321
2.67279
2.64374
2.59422
2.52407
2.43569
2.33428
2.22728
2.12311
2.02992
1.95457
1.90166
1.87302
1.8678
1.88325
1.91564
1.96105
2.01578
2.07661
2.14077
2.20594
2.27016
2.33179
2.38951
2.44223
2.4891
2.52946
2.56276
2.58863
2.60673
2.61684
2.61879
2.61247
2.59784
2.57497
2.54397
2.50509
2.4587
2.40527
2.34544
2.27999
2.20984
2.13602
2.05972
1.98216
1.90464
1.82843
1.75474
1.68469
1.61923
1.5591
1.50487
1.45688
1.41526
1.38
1.35092
1.32778
1.31023
1.29791
1.29043
1.2874
1.28842
1.29313
1.30116
1.31216
1.32579
1.34172
1.35963
1.37922
1.40017
1.4222
1.44501
1.46834
1.4919
1.51545
1.53875
1.56154
1.58362
1.60474
1.62473
1.64336
1.66047
1.67588
1.68945
1.70104
1.71053
1.71783
1.72287
1.72558
1.72595
1.72395
1.71961
1.71294
1.70402
1.69291
1.67972
1.66455
1.64753
1.6288
1.60853
1.58687
1.56398
1.54003
1.51518
1.4896
1.46342
1.43679
1.40984
1.38268
1.35541
1.32812
1.3009
1.2738
1.2469
1.22026
1.19393
1.16799
1.14248
1.11749
1.09307
1.06928
1.0462
1.02389
1.00239
0.981782
0.962105
0.943417
0.925771
0.909222
0.893819
0.879605
0.86661
0.854845
0.844294
0.834911
0.826618
0.819302
0.812824
0.80698
0.801362
0.795728
0.789861
0.783578
0.776764
0.769316
0.761038
0.673691
1.23495
1.56492
1.80233
1.99142
2.14953
2.2851
2.40311
2.50699
2.59927
2.68195
2.75632
2.82291
2.88144
2.93097
2.97003
2.99693
3.01008
3.00842
2.99179
2.96136
2.91975
2.87104
2.82027
2.77283
2.73345
2.70549
2.69047
2.68796
2.69591
2.71123
2.73065
2.74768
2.75819
2.75845
2.74482
2.71358
2.6615
2.58685
2.49058
2.37685
2.25255
2.12624
2.00699
1.9032
1.82127
1.76462
1.73365
1.7265
1.73994
1.77018
1.81337
1.86592
1.92465
1.98686
2.05031
2.11323
2.17422
2.23221
2.28638
2.3361
2.38083
2.4201
2.45348
2.48055
2.5009
2.51415
2.51994
2.51799
2.50808
2.49011
2.46409
2.43017
2.38868
2.34012
2.28516
2.22464
2.15958
2.09113
2.02055
1.94913
1.87822
1.80907
1.74286
1.68061
1.62313
1.57105
1.52479
1.48454
1.45036
1.42214
1.39966
1.38265
1.37076
1.36364
1.36093
1.36224
1.36722
1.3755
1.38674
1.40059
1.4167
1.43477
1.45443
1.47537
1.49728
1.51987
1.54286
1.56596
1.58891
1.61144
1.6333
1.65426
1.67411
1.69263
1.7096
1.72486
1.73823
1.74955
1.75871
1.76558
1.77008
1.77214
1.77172
1.7688
1.76337
1.75545
1.7451
1.73237
1.71736
1.70017
1.68093
1.65978
1.63687
1.61238
1.58647
1.55934
1.53116
1.50213
1.47241
1.4422
1.41164
1.38091
1.35014
1.31946
1.28899
1.25883
1.22908
1.1998
1.17108
1.14298
1.11555
1.08885
1.06292
1.03778
1.01348
0.990044
0.96748