/*--------------------------------*- C++ -*----------------------------------*\
  =========                 |
  \\      /  F ield         | OpenFOAM: The Open Source CFD Toolbox
   \\    /   O peration     | Website:  https://openfoam.org
    \\  /    A nd           | Version:  9
     \\/     M anipulation  |
\*---------------------------------------------------------------------------*/
FoamFile
{
    format      ascii;
    class       volScalarField;
    location    "0.21";
    object      nut;
}
// * * * * * * * * * * * * * * * * * * * * * * * * * * * * * * * * * * * * * //

dimensions      [0 2 -1 0 0 0 0];

internalField   nonuniform List<scalar> 
12225
(
4.04121e-05
3.81533e-05
3.60142e-05
3.41438e-05
3.26594e-05
3.16055e-05
3.09769e-05
3.0737e-05
3.08315e-05
3.12002e-05
3.17837e-05
3.25285e-05
3.33889e-05
3.43278e-05
3.53172e-05
3.63367e-05
3.73826e-05
3.8952e-05
0.000281474
0.000208498
0.00017531
0.000156609
0.000145607
0.000139196
0.000135446
0.000133196
0.000131767
0.000130774
0.00013001
0.000129365
0.000128785
0.000128246
0.000127746
0.000127278
0.0001269
0.000126415
0.000558687
0.000422647
0.000351953
0.000306339
0.000273586
0.000248741
0.000229197
0.000213451
0.000200577
0.000189961
0.00018115
0.000173798
0.000167627
0.000162409
0.000157962
0.000154123
0.000150792
0.00014774
0.000741496
0.00062802
0.000546698
0.000487531
0.000442026
0.000405538
0.000375316
0.000349643
0.000327441
0.000308014
0.000290887
0.000275706
0.000262191
0.000250103
0.000239232
0.000229373
0.000220356
0.000211973
0.000817462
0.000760154
0.000702069
0.00065039
0.000605781
0.000567379
0.00053406
0.000504794
0.000478772
0.000455388
0.000434193
0.000414846
0.000397073
0.000380646
0.000365359
0.000351011
0.000337412
0.000324456
0.000842209
0.000820034
0.000790551
0.000758476
0.00072658
0.000696247
0.000668006
0.000641914
0.000617831
0.000595552
0.000574866
0.000555574
0.00053749
0.000520443
0.000504266
0.000488787
0.000473836
0.000459416
0.000849288
0.000841905
0.00082994
0.000814497
0.000796883
0.000778217
0.000759305
0.000740646
0.000722519
0.000705059
0.000688313
0.000672274
0.000656899
0.000642122
0.000627861
0.000614014
0.000600475
0.000587338
0.000851127
0.000848771
0.000844529
0.000838317
0.000830355
0.000821019
0.000810712
0.000799789
0.000788529
0.000777138
0.000765758
0.00075448
0.000743356
0.000732404
0.000721618
0.000710971
0.000700428
0.000690135
0.000851562
0.00085067
0.000849178
0.000846897
0.000843751
0.000839762
0.000835017
0.000829638
0.000823754
0.000817485
0.000810933
0.000804184
0.000797299
0.000790324
0.000783287
0.0007762
0.000769075
0.000762057
0.000851654
0.000851135
0.000850468
0.00084956
0.000848336
0.000846749
0.000844784
0.000842449
0.000839769
0.000836781
0.000833525
0.000830041
0.000826363
0.000822524
0.000818551
0.000814463
0.000810286
0.000806132
0.00085167
0.000851232
0.000850777
0.000850274
0.000849687
0.000848986
0.000848149
0.000847159
0.000846009
0.0008447
0.000843237
0.00084163
0.00083989
0.00083803
0.000836064
0.000834008
0.000831882
0.000829758
0.000851671
0.000851246
0.000850835
0.000850426
0.000850006
0.000849561
0.000849078
0.000848545
0.000847953
0.000847296
0.000846571
0.000845779
0.00084492
0.000844
0.000843026
0.000842006
0.000840957
0.000839923
0.00085167
0.000851246
0.000850844
0.000850458
0.000850084
0.000849717
0.000849351
0.00084898
0.000848599
0.000848205
0.000847793
0.000847363
0.000846914
0.000846449
0.000845971
0.000845487
0.000845008
0.000844562
0.000851668
0.000851244
0.000850841
0.000850459
0.000850095
0.000849747
0.000849413
0.000849091
0.000848779
0.000848475
0.000848178
0.000847887
0.000847604
0.00084733
0.000847068
0.000846824
0.000846606
0.000846433
0.000851667
0.000851241
0.000850837
0.000850454
0.000850091
0.000849746
0.000849418
0.000849107
0.000848811
0.000848529
0.000848263
0.000848012
0.000847778
0.000847562
0.000847368
0.0008472
0.000847065
0.000846977
0.000851666
0.000851238
0.000850833
0.000850449
0.000850085
0.00084974
0.000849413
0.000849104
0.000848811
0.000848535
0.000848275
0.000848033
0.00084781
0.000847606
0.000847425
0.00084727
0.000847147
0.000847067
0.000851665
0.000851236
0.00085083
0.000850445
0.000850081
0.000849736
0.000849409
0.0008491
0.000848808
0.000848533
0.000848275
0.000848034
0.000847812
0.000847609
0.000847426
0.000847266
0.000847133
0.000847039
0.000851664
0.000851235
0.000850828
0.000850442
0.000850078
0.000849732
0.000849406
0.000849097
0.000848805
0.00084853
0.000848271
0.000848029
0.000847804
0.000847596
0.000847406
0.000847235
0.000847086
0.00084697
0.000851663
0.000851234
0.000850827
0.000850441
0.000850077
0.000849731
0.000849404
0.000849095
0.000848802
0.000848526
0.000848265
0.000848018
0.000847787
0.000847571
0.000847369
0.000847183
0.000847015
0.000846876
0.000851663
0.000851234
0.000850827
0.000850443
0.000850079
0.000849734
0.000849407
0.000849097
0.000848803
0.000848524
0.000848259
0.000848008
0.000847769
0.000847543
0.00084733
0.000847128
0.000846942
0.00084678
0.000851664
0.000851235
0.000850829
0.000850446
0.000850082
0.000849737
0.000849409
0.000849096
0.000848797
0.000848511
0.000848235
0.00084797
0.000847713
0.000847465
0.000847225
0.000846992
0.000846769
0.000846566
0.000851665
0.000851236
0.000850831
0.000850444
0.000850073
0.000849714
0.000849361
0.000849012
0.000848663
0.00084831
0.000847952
0.000847587
0.000847214
0.000846832
0.00084644
0.000846038
0.00084563
0.000845228
0.000851664
0.000851227
0.000850796
0.000850351
0.000849876
0.000849355
0.000848775
0.000848128
0.000847408
0.000846614
0.000845747
0.000844811
0.000843811
0.000842751
0.000841639
0.00084048
0.000839284
0.000838072
0.000851634
0.000851074
0.000850348
0.000849375
0.0008481
0.000846501
0.000844578
0.000842352
0.000839858
0.000837133
0.000834218
0.000831151
0.000827966
0.000824695
0.000821364
0.000817996
0.000814612
0.00081126
0.000851289
0.00084961
0.000846759
0.000842651
0.00083738
0.000831147
0.000824192
0.000816741
0.000808985
0.000801078
0.000793134
0.00078524
0.000777457
0.000769825
0.000762371
0.000755111
0.000748057
0.000741263
0.000848345
0.000839534
0.000826398
0.000810394
0.000792872
0.000774863
0.000757059
0.000739858
0.000723455
0.000707924
0.000693275
0.000679477
0.00066648
0.000654229
0.000642663
0.000631727
0.00062137
0.000611606
0.000828748
0.000789421
0.000746955
0.00070684
0.00067073
0.00063883
0.000610787
0.000586054
0.000564096
0.00054446
0.000526776
0.000510743
0.00049612
0.000482709
0.000470351
0.000458914
0.000448292
0.00043844
0.000731703
0.000628734
0.000555799
0.000502188
0.000461317
0.00042923
0.000403406
0.00038213
0.000364252
0.000348994
0.000335808
0.000324293
0.00031415
0.000305148
0.000297108
0.000289885
0.00028336
0.000277452
0.000439626
0.000337564
0.000286732
0.000255728
0.000235359
0.000221679
0.000212314
0.000205762
0.000201062
0.0001976
0.00019498
0.000192941
0.000191307
0.000189962
0.000188825
0.00018784
0.000186971
0.000186172
7.1587e-05
6.89082e-05
6.63247e-05
6.38849e-05
6.16764e-05
5.97484e-05
5.81187e-05
5.67832e-05
5.57246e-05
5.49182e-05
5.43365e-05
5.39518e-05
5.37373e-05
5.36685e-05
5.37232e-05
5.38818e-05
5.41274e-05
5.4444e-05
3.89534e-05
5.10665e-05
5.63269e-05
5.9532e-05
6.14616e-05
6.25795e-05
6.31308e-05
6.324e-05
6.29612e-05
6.23319e-05
6.17322e-05
6.10567e-05
6.02344e-05
5.92041e-05
5.79212e-05
5.63682e-05
5.43804e-05
5.28703e-05
5.19832e-05
5.19067e-05
5.29271e-05
5.52168e-05
5.86984e-05
6.30502e-05
6.78494e-05
7.27314e-05
7.74583e-05
8.19066e-05
8.60278e-05
8.98162e-05
9.32882e-05
9.64693e-05
9.93874e-05
0.000102071
0.000104548
0.000106855
0.000109051
0.000111289
0.000113215
0.000114841
0.000116176
0.000117225
0.000117988
0.000118463
0.00011865
0.000118549
0.000118162
0.000117492
0.000116545
0.00011533
0.000113855
0.000112131
0.000110168
0.000107978
0.00010558
0.000103044
0.000100497
9.85147e-05
9.67935e-05
9.5113e-05
9.34502e-05
9.18148e-05
9.02245e-05
8.86982e-05
8.72543e-05
8.59097e-05
8.46787e-05
8.35732e-05
8.2602e-05
8.17708e-05
8.1082e-05
8.05355e-05
8.01281e-05
7.98548e-05
7.97083e-05
7.96802e-05
7.97611e-05
7.99408e-05
8.02091e-05
8.05556e-05
8.09705e-05
8.14439e-05
8.19669e-05
8.25308e-05
8.31276e-05
8.375e-05
8.43909e-05
8.50442e-05
8.57039e-05
8.63648e-05
8.7022e-05
8.76711e-05
8.83083e-05
8.89301e-05
8.95337e-05
9.01168e-05
9.06777e-05
9.12153e-05
9.1729e-05
9.2219e-05
9.26859e-05
9.31311e-05
9.35562e-05
9.39636e-05
9.43558e-05
9.47357e-05
9.51063e-05
9.54708e-05
9.58323e-05
9.61938e-05
9.65579e-05
9.69272e-05
9.73037e-05
9.76889e-05
9.80841e-05
9.84898e-05
9.89062e-05
9.93329e-05
9.9769e-05
0.000100213
0.000100664
0.000101118
0.000101575
0.00010203
0.000102482
0.000102927
0.000103362
0.000103783
0.000104189
0.000104575
0.000104938
0.000105276
0.000105586
0.000105864
0.00010611
0.000106321
0.000106496
0.000106636
0.000106739
0.000106806
0.000106841
0.000106844
0.000106819
0.00010677
0.000106699
0.000106613
0.000106514
0.000106406
0.000106295
0.000106182
0.000106071
0.000105964
0.00010586
0.000105761
0.000105663
0.000105563
0.000105455
0.000105332
0.000105185
0.000105004
0.000104773
0.000104477
0.000104113
0.000103682
0.000103185
0.000102628
0.000102017
0.000101358
0.000100655
9.9914e-05
9.91403e-05
9.83384e-05
9.75115e-05
9.66605e-05
9.57826e-05
9.48679e-05
9.38961e-05
9.28187e-05
9.1581e-05
8.98789e-05
8.32363e-05
0.000144181
0.000182603
0.000208154
0.000225056
0.000235699
0.000241612
0.000243902
0.0002435
0.000241705
0.00023719
0.000227384
0.000214233
0.000199487
0.000184656
0.000170544
0.0001583
0.000152214
0.000154375
0.000167464
0.000193212
0.000230556
0.000275519
0.000323056
0.000369209
0.000412134
0.000451858
0.000489431
0.000526122
0.000562936
0.000600444
0.000638779
0.000677695
0.000716616
0.000754676
0.000790753
0.000823151
0.000851845
0.000878974
0.000904609
0.000928564
0.000950611
0.000970521
0.000988074
0.00100307
0.00101531
0.00102466
0.00103098
0.00103416
0.00103413
0.00103082
0.00102418
0.00101418
0.00100078
0.000983997
0.000963911
0.000940755
0.000915222
0.000888687
0.000861027
0.000832348
0.000802859
0.000772808
0.000742458
0.000712085
0.000681964
0.000652368
0.000623561
0.000595791
0.000569283
0.000544231
0.000520795
0.000499093
0.000479201
0.000461157
0.000444957
0.000430565
0.000417916
0.000406923
0.000397484
0.000389487
0.000382813
0.000377344
0.000372961
0.000369552
0.00036701
0.000365234
0.000364131
0.000363617
0.000363616
0.000364061
0.000364892
0.000366059
0.00036752
0.000369239
0.00037119
0.000373351
0.000375709
0.000378252
0.000380977
0.000383882
0.000386965
0.000390231
0.00039368
0.000397314
0.000401133
0.000405134
0.00040931
0.000413654
0.00041815
0.000422782
0.000427526
0.000432356
0.00043724
0.000442146
0.000447036
0.000451871
0.000456611
0.000461213
0.000465639
0.000469847
0.000473799
0.000477461
0.000480799
0.000483783
0.000486387
0.000488589
0.000490369
0.000491714
0.000492615
0.000493066
0.000493069
0.000492628
0.000491757
0.000490472
0.000488797
0.000486762
0.000484399
0.000481746
0.000478844
0.000475733
0.000472455
0.000469049
0.00046555
0.000461989
0.000458391
0.000454774
0.000451147
0.000447513
0.000443864
0.000440182
0.000436439
0.000432595
0.000428605
0.000424419
0.000419986
0.000415257
0.000410193
0.000404758
0.000398917
0.00039261
0.00038568
0.000377826
0.000369401
0.000360831
0.000352492
0.000344488
0.000336813
0.000329471
0.000322463
0.00031578
0.000309396
0.000303255
0.000297258
0.000291229
0.000284869
0.000277595
0.000268682
0.000255588
0.000241805
0.000119366
0.000191148
0.000240272
0.000275202
0.000299631
0.000316045
0.000326467
0.000332767
0.000336836
0.000338894
0.000336464
0.000328939
0.000315859
0.000296898
0.000274956
0.000257642
0.000249854
0.000257537
0.000284876
0.000332874
0.000397965
0.000472981
0.000550335
0.000624672
0.000693583
0.000756927
0.000815756
0.00087139
0.000924894
0.000976897
0.00102765
0.00107713
0.0011252
0.00117164
0.00121624
0.00125885
0.00129844
0.00133626
0.00137257
0.00140727
0.00144015
0.00147094
0.00149934
0.00152507
0.00154785
0.00156741
0.00158352
0.00159598
0.00160463
0.00160937
0.00161015
0.00160695
0.00159981
0.0015888
0.00157402
0.00155563
0.00153376
0.00150863
0.00148105
0.00145156
0.00142035
0.0013876
0.00135351
0.00131827
0.00128209
0.00124516
0.00120769
0.00116989
0.00113202
0.00109434
0.00105715
0.00102076
0.000985523
0.000951761
0.000919799
0.00088992
0.000862358
0.000837281
0.000814792
0.000794922
0.000777642
0.000762867
0.000750472
0.000740299
0.000732174
0.00072591
0.000721322
0.000718229
0.000716457
0.000715848
0.000716258
0.000717559
0.000719639
0.000722404
0.000725775
0.000729689
0.000734096
0.00073896
0.000744253
0.00074996
0.000756069
0.000762576
0.000769476
0.00077677
0.000784452
0.000792516
0.000800951
0.000809737
0.000818848
0.00082825
0.000837898
0.000847741
0.000857718
0.000867759
0.00087779
0.00088773
0.000897495
0.000907001
0.000916161
0.000924894
0.000933119
0.000940761
0.000947754
0.000954036
0.000959555
0.000964267
0.000968136
0.000971139
0.00097326
0.000974493
0.000974844
0.000974329
0.000972974
0.000970815
0.000967901
0.000964287
0.000960038
0.000955227
0.000949931
0.00094423
0.000938203
0.00093193
0.000925482
0.000918925
0.000912315
0.000905696
0.0008991
0.000892544
0.000886029
0.000879539
0.000873042
0.000866487
0.000859808
0.00085293
0.000845769
0.000838243
0.000830279
0.000821812
0.000812793
0.000803184
0.000792945
0.000782013
0.00077031
0.000757846
0.000744632
0.000730593
0.000716199
0.000702006
0.000688131
0.000674682
0.000661748
0.000649373
0.000637535
0.000626109
0.000614816
0.000603135
0.000590047
0.000573888
0.000550308
0.000516942
0.000145151
0.000231102
0.000297215
0.000343822
0.000373724
0.000390677
0.000398949
0.000402561
0.000403979
0.000401748
0.000396268
0.000388113
0.000376992
0.000364294
0.000354391
0.000354449
0.000371311
0.000410007
0.000471298
0.000550772
0.00064045
0.000732038
0.000819497
0.000899793
0.00097234
0.00103799
0.00109813
0.00115405
0.00120676
0.00125691
0.00130489
0.00135095
0.00139526
0.0014379
0.00147893
0.00151833
0.00155598
0.00159265
0.00162844
0.00166325
0.00169688
0.00172908
0.00175953
0.00178792
0.00181391
0.00183715
0.00185733
0.00187415
0.00188737
0.00189677
0.00190223
0.00190367
0.00190108
0.00189451
0.00188408
0.00186995
0.0018523
0.00183132
0.00180753
0.00178172
0.00175427
0.00172545
0.0016955
0.00166462
0.00163298
0.00160071
0.00156789
0.00153456
0.00150074
0.00146644
0.00143167
0.00139651
0.00136107
0.00132556
0.00129028
0.00125561
0.00122198
0.00118984
0.00115963
0.00113175
0.00110649
0.00108406
0.00106457
0.00104802
0.00103434
0.00102339
0.001015
0.00100894
0.00100501
0.00100299
0.00100266
0.00100383
0.00100632
0.00100998
0.00101469
0.00102032
0.00102679
0.00103402
0.00104197
0.00105059
0.00105985
0.00106973
0.0010802
0.00109124
0.00110284
0.00111496
0.00112758
0.00114065
0.00115412
0.00116792
0.00118199
0.00119623
0.00121054
0.00122481
0.00123894
0.0012528
0.00126627
0.00127923
0.00129155
0.00130312
0.00131385
0.00132362
0.00133237
0.00134001
0.00134648
0.00135175
0.00135579
0.00135857
0.00136011
0.00136042
0.00135953
0.00135748
0.00135433
0.00135014
0.00134501
0.00133901
0.00133225
0.00132482
0.00131685
0.00130842
0.00129964
0.00129063
0.00128145
0.00127219
0.00126293
0.0012537
0.00124454
0.00123547
0.00122647
0.00121754
0.00120862
0.00119965
0.00119055
0.00118124
0.00117163
0.00116162
0.00115116
0.00114017
0.00112862
0.00111648
0.00110373
0.00109036
0.00107634
0.00106169
0.00104642
0.00103056
0.00101416
0.000997578
0.000981329
0.000965579
0.000950465
0.000936073
0.000922406
0.000909345
0.000896597
0.000883604
0.000869346
0.000852104
0.000828341
0.00079506
0.000171773
0.000277004
0.000364378
0.000423245
0.000456578
0.000470417
0.000472869
0.000471235
0.000466813
0.000462042
0.000457644
0.000453913
0.0004518
0.000454019
0.000465331
0.000491504
0.000536969
0.00060279
0.000685589
0.000778548
0.00087397
0.000965649
0.00104994
0.0011256
0.00119301
0.00125336
0.00130801
0.00135816
0.00140472
0.00144837
0.00148962
0.00152884
0.00156631
0.00160223
0.00163671
0.00166978
0.00170209
0.00173426
0.00176643
0.00179854
0.00183045
0.00186192
0.00189266
0.00192233
0.00195052
0.00197681
0.00200078
0.00202198
0.00204001
0.00205453
0.00206524
0.00207193
0.00207447
0.00207283
0.00206704
0.00205725
0.00204363
0.00202638
0.00200598
0.00198337
0.00195905
0.00193342
0.00190684
0.00187968
0.00185225
0.0018248
0.00179753
0.00177053
0.00174381
0.00171726
0.00169073
0.00166396
0.00163671
0.00160874
0.00157988
0.00155012
0.00151958
0.00148856
0.00145753
0.00142705
0.00139775
0.00137024
0.00134502
0.00132251
0.00130298
0.00128654
0.00127323
0.00126294
0.00125551
0.00125075
0.00124843
0.00124831
0.00125017
0.00125379
0.001259
0.00126562
0.00127351
0.00128257
0.00129267
0.00130376
0.00131575
0.00132859
0.00134224
0.00135662
0.0013717
0.00138742
0.0014037
0.00142048
0.00143765
0.00145513
0.00147278
0.0014905
0.00150814
0.00152555
0.00154258
0.00155907
0.00157488
0.00158985
0.00160384
0.00161671
0.00162836
0.00163867
0.00164756
0.00165496
0.00166083
0.00166514
0.00166789
0.00166909
0.00166877
0.00166698
0.00166378
0.00165926
0.00165351
0.00164663
0.00163874
0.00162995
0.0016204
0.0016102
0.00159948
0.00158837
0.00157696
0.00156537
0.00155369
0.00154199
0.00153033
0.00151876
0.0015073
0.00149595
0.00148471
0.00147352
0.00146234
0.00145111
0.00143973
0.00142813
0.00141622
0.00140394
0.00139122
0.00137804
0.00136437
0.0013502
0.00133555
0.00132043
0.00130485
0.00128884
0.00127245
0.00125574
0.00123878
0.00122165
0.00120483
0.00118862
0.00117317
0.00115858
0.00114484
0.00113181
0.0011192
0.00110641
0.00109249
0.00107585
0.0010539
0.00102465
0.000195387
0.00031417
0.000432794
0.000508818
0.000548808
0.000564389
0.00056703
0.000561604
0.000554509
0.000549294
0.000547601
0.000550589
0.000560023
0.000578747
0.000610317
0.000657775
0.000722037
0.000800924
0.000889458
0.000981384
0.00107101
0.00115437
0.00122954
0.00129619
0.00135499
0.00140702
0.00145344
0.00149525
0.00153328
0.00156823
0.00160063
0.00163096
0.00165958
0.00168678
0.00171278
0.00173788
0.00176334
0.00178971
0.00181718
0.00184579
0.00187544
0.00190598
0.00193712
0.00196851
0.00199971
0.00203019
0.00205939
0.00208671
0.00211154
0.00213332
0.00215155
0.00216579
0.00217574
0.00218119
0.00218204
0.00217831
0.00217017
0.00215763
0.00214143
0.00212243
0.00210115
0.00207806
0.00205368
0.00202851
0.00200307
0.00197784
0.00195327
0.0019297
0.00190739
0.00188645
0.00186686
0.00184843
0.0018308
0.0018135
0.00179597
0.00177763
0.00175796
0.00173664
0.00171355
0.00168885
0.00166298
0.00163658
0.00161043
0.00158532
0.00156198
0.00154102
0.00152288
0.00150783
0.00149596
0.00148726
0.00148162
0.00147884
0.00147873
0.00148105
0.00148558
0.00149211
0.00150044
0.00151041
0.00152185
0.00153465
0.00154868
0.00156384
0.00158002
0.00159714
0.00161508
0.00163375
0.00165304
0.00167282
0.00169295
0.00171329
0.00173367
0.00175393
0.00177389
0.00179336
0.00181215
0.00183007
0.00184695
0.00186261
0.0018769
0.00188968
0.00190082
0.00191022
0.00191783
0.00192358
0.00192745
0.00192946
0.00192963
0.00192801
0.00192468
0.00191973
0.00191327
0.00190543
0.00189633
0.00188613
0.00187496
0.00186297
0.00185032
0.00183713
0.00182355
0.00180969
0.00179567
0.00178159
0.00176751
0.00175351
0.00173962
0.00172588
0.00171228
0.00169881
0.00168545
0.00167213
0.00165879
0.00164537
0.00163177
0.00161794
0.00160381
0.00158933
0.00157447
0.00155922
0.00154361
0.00152766
0.0015114
0.00149488
0.00147814
0.00146124
0.00144424
0.00142723
0.00141027
0.00139347
0.00137698
0.00136124
0.00134639
0.00133251
0.00131956
0.00130737
0.00129562
0.0012837
0.0012707
0.00125523
0.00123534
0.00120999
0.000206267
0.000314725
0.000493198
0.000599744
0.000654917
0.000677734
0.000680079
0.000673706
0.000666274
0.000662274
0.000664259
0.000674068
0.000693573
0.000724785
0.000769344
0.00082766
0.000898225
0.000977571
0.00106101
0.00114379
0.0012221
0.00129351
0.00135699
0.00141252
0.00146069
0.00150236
0.00153844
0.00156979
0.0015972
0.00162138
0.00164296
0.0016625
0.00168049
0.00169733
0.00171331
0.00172962
0.00174747
0.00176741
0.00178975
0.00181459
0.00184196
0.00187176
0.00190378
0.00193769
0.00197302
0.00200919
0.00204548
0.00208113
0.00211528
0.00214713
0.00217588
0.00220085
0.00222146
0.00223729
0.00224804
0.00225354
0.00225377
0.0022487
0.00223936
0.00222627
0.00220988
0.0021907
0.00216928
0.00214624
0.00212223
0.00209792
0.00207399
0.00205107
0.00202974
0.00201049
0.00199367
0.00197944
0.00196777
0.00195837
0.00195074
0.00194415
0.00193769
0.00193044
0.00192151
0.00191022
0.00189621
0.00187946
0.00186038
0.00183966
0.00181821
0.001797
0.00177695
0.00175885
0.0017433
0.00173068
0.0017212
0.00171492
0.00171178
0.00171162
0.00171427
0.00171952
0.00172715
0.00173695
0.00174872
0.00176228
0.00177745
0.00179407
0.00181199
0.00183104
0.00185108
0.00187194
0.00189345
0.00191543
0.00193769
0.00196004
0.00198225
0.00200411
0.0020254
0.00204589
0.00206535
0.00208358
0.00210036
0.0021155
0.00212886
0.00214027
0.00214962
0.00215684
0.00216187
0.0021647
0.00216532
0.0021638
0.00216021
0.00215464
0.00214723
0.00213812
0.00212747
0.00211545
0.00210225
0.00208805
0.00207302
0.00205734
0.00204118
0.00202469
0.00200799
0.00199122
0.00197446
0.00195781
0.00194131
0.00192501
0.00190892
0.00189305
0.00187736
0.00186181
0.00184636
0.00183093
0.00181544
0.00179982
0.001784
0.00176791
0.00175151
0.0017348
0.00171776
0.00170044
0.00168288
0.00166516
0.00164734
0.0016295
0.00161173
0.0015941
0.00157669
0.0015596
0.00154291
0.0015267
0.00151101
0.00149617
0.00148236
0.0014696
0.00145784
0.00144686
0.00143629
0.00142553
0.0014137
0.0013996
0.00138176
0.00135975
4.48972e-05
0.000326963
0.000561306
0.000693583
0.000761617
0.000790079
0.000796493
0.000793121
0.000788316
0.000787366
0.000793497
0.0008088
0.000834753
0.000872256
0.000921337
0.000980819
0.00104823
0.00112013
0.00119274
0.00126263
0.00132724
0.00138499
0.00143522
0.00147794
0.00151359
0.00154283
0.00156642
0.00158519
0.00159992
0.00161141
0.0016204
0.0016276
0.00163365
0.00163913
0.00164452
0.00165175
0.00166175
0.00167508
0.00169206
0.00171294
0.00173786
0.00176683
0.00179979
0.00183649
0.0018765
0.00191923
0.00196388
0.0020095
0.00205503
0.00209934
0.00214135
0.00218003
0.00221452
0.00224412
0.00226819
0.00228643
0.00229827
0.00230458
0.0023057
0.00230195
0.00229368
0.00228134
0.00226547
0.0022467
0.00222573
0.00220332
0.00218028
0.00215746
0.00213568
0.00211577
0.00209846
0.00208437
0.00207394
0.0020674
0.00206467
0.00206538
0.00206881
0.00207395
0.00207957
0.00208435
0.00208704
0.00208665
0.00208257
0.00207469
0.00206338
0.00204941
0.00203381
0.0020177
0.00200217
0.00198814
0.00197633
0.00196724
0.00196115
0.00195819
0.00195835
0.00196152
0.00196755
0.00197625
0.00198739
0.00200077
0.00201617
0.00203337
0.00205216
0.00207231
0.00209361
0.00211583
0.00213874
0.0021621
0.00218566
0.00220915
0.00223231
0.00225487
0.00227656
0.00229711
0.00231627
0.00233378
0.00234942
0.00236299
0.00237432
0.00238327
0.00238973
0.00239363
0.00239496
0.00239372
0.00238998
0.00238382
0.00237537
0.0023648
0.00235228
0.00233803
0.00232226
0.0023052
0.00228708
0.00226813
0.00224856
0.00222858
0.00220837
0.00218809
0.00216787
0.00214784
0.00212806
0.0021086
0.00208949
0.00207074
0.00205232
0.0020342
0.00201633
0.00199862
0.001981
0.00196337
0.00194564
0.00192773
0.00190955
0.00189107
0.00187227
0.00185316
0.00183377
0.00181419
0.00179451
0.00177483
0.00175528
0.00173596
0.001717
0.0016985
0.00168058
0.00166333
0.00164683
0.00163115
0.00161632
0.00160242
0.00158969
0.00157813
0.0015676
0.00155786
0.0015485
0.00153892
0.00152828
0.00151555
0.0014996
0.00148038
4.87288e-05
0.000376561
0.000627418
0.000773279
0.000852411
0.000890162
0.000904005
0.000906494
0.000906433
0.000909602
0.000919531
0.000938236
0.000966679
0.00100492
0.0010521
0.00110642
0.00116534
0.0012259
0.00128517
0.00134063
0.00139041
0.00143338
0.00146902
0.00149734
0.00151868
0.00153361
0.0015429
0.00154736
0.00154792
0.00154548
0.00154098
0.00153531
0.00152928
0.00152369
0.00151926
0.00151818
0.0015209
0.00152785
0.0015394
0.00155588
0.00157762
0.00160488
0.00163781
0.00167636
0.00172031
0.00176912
0.001822
0.0018779
0.00193554
0.00199351
0.00205041
0.0021048
0.00215549
0.00220153
0.00224147
0.00227498
0.00230236
0.00232364
0.00233882
0.00234802
0.00235146
0.00234949
0.00234257
0.00233129
0.00231632
0.00229843
0.00227847
0.00225736
0.00223609
0.00221566
0.00219709
0.00218134
0.0021693
0.00216172
0.0021591
0.00216167
0.00216928
0.00218138
0.00219702
0.00221484
0.00223326
0.00225057
0.00226521
0.00227596
0.00228207
0.0022834
0.00228038
0.00227387
0.00226503
0.00225508
0.00224523
0.00223648
0.00222962
0.00222522
0.00222363
0.002225
0.00222936
0.00223665
0.0022467
0.00225934
0.00227434
0.00229144
0.00231041
0.00233095
0.00235281
0.00237569
0.00239928
0.0024233
0.00244743
0.00247134
0.00249471
0.00251722
0.00253855
0.0025584
0.00257647
0.00259247
0.00260618
0.00261736
0.00262583
0.00263147
0.00263417
0.00263389
0.00263062
0.00262443
0.00261539
0.00260367
0.00258944
0.00257292
0.00255437
0.00253404
0.00251224
0.00248923
0.00246533
0.00244079
0.00241589
0.00239085
0.00236588
0.00234116
0.00231683
0.00229298
0.00226969
0.00224698
0.00222486
0.0022033
0.00218224
0.00216161
0.00214129
0.00212119
0.00210118
0.00208114
0.00206095
0.00204052
0.00201977
0.00199867
0.0019772
0.00195541
0.00193338
0.0019112
0.00188903
0.00186702
0.00184533
0.00182411
0.00180354
0.00178376
0.00176489
0.00174706
0.00173035
0.00171481
0.00170045
0.00168719
0.00167525
0.00166458
0.00165502
0.00164626
0.00163787
0.00162925
0.0016196
0.00160804
0.00159367
0.00157668
5.01097e-05
0.000395506
0.000667231
0.000830134
0.000922969
0.000972031
0.000995161
0.00100509
0.0010108
0.00101829
0.00103114
0.00105121
0.0010791
0.00111443
0.00115602
0.001202
0.00125009
0.00129782
0.00134288
0.00138332
0.00141772
0.00144519
0.00146533
0.00147819
0.00148413
0.0014838
0.00147803
0.0014678
0.0014542
0.00143834
0.00142134
0.00140427
0.00138811
0.00137367
0.00136276
0.00135564
0.00135248
0.00135356
0.00135928
0.0013702
0.00138693
0.00141013
0.00144034
0.00147796
0.00152307
0.00157542
0.00163432
0.00169874
0.00176726
0.00183815
0.00190981
0.0019802
0.00204796
0.00211048
0.00216787
0.0022196
0.00226516
0.00230413
0.00233627
0.00236147
0.00237979
0.00239145
0.00239682
0.00239637
0.00239071
0.00238058
0.00236678
0.00235024
0.00233197
0.00231305
0.00229462
0.00227785
0.00226393
0.00225396
0.00224895
0.0022497
0.00225674
0.00227021
0.0022898
0.00231469
0.00234359
0.00237477
0.00240629
0.00243612
0.00246249
0.00248407
0.00250013
0.00251063
0.00251611
0.00251755
0.00251621
0.00251339
0.00251032
0.00250804
0.00250737
0.00250886
0.00251288
0.0025196
0.00252906
0.00254117
0.00255578
0.00257267
0.00259159
0.00261224
0.0026343
0.00265745
0.00268133
0.00270559
0.00272985
0.00275374
0.00277689
0.00279892
0.00281947
0.00283819
0.00285474
0.00286883
0.00288017
0.00288854
0.00289375
0.00289565
0.00289414
0.00288921
0.00288086
0.00286919
0.00285432
0.00283644
0.00281579
0.00279265
0.00276733
0.00274018
0.00271153
0.00268176
0.0026512
0.00262021
0.00258909
0.00255812
0.00252753
0.00249753
0.00246826
0.00243982
0.00241227
0.00238563
0.00235986
0.0023349
0.00231064
0.00228698
0.00226377
0.00224084
0.00221805
0.00219523
0.00217224
0.00214896
0.00212531
0.00210123
0.00207674
0.00205189
0.00202678
0.00200155
0.00197638
0.00195147
0.00192703
0.00190327
0.0018804
0.00185861
0.00183806
0.00181889
0.00180119
0.00178503
0.00177037
0.00175714
0.00174528
0.00173486
0.00172565
0.00171732
0.00170939
0.00170125
0.00169218
0.00168138
0.00166813
0.0016527
5.12798e-05
0.000401411
0.000688551
0.0008665
0.000972787
0.00103367
0.00106687
0.00108495
0.00109681
0.00110842
0.00112335
0.00114338
0.00116895
0.00119955
0.00123396
0.00127048
0.00130711
0.00134183
0.00137277
0.00139837
0.00141752
0.00142957
0.0014343
0.0014319
0.00142294
0.00140824
0.0013889
0.00136615
0.00134131
0.00131571
0.00129059
0.00126707
0.0012461
0.00122839
0.00121513
0.00120488
0.00119728
0.00119246
0.00119099
0.00119376
0.00120192
0.00121675
0.00123945
0.00127104
0.00131217
0.00136303
0.00142321
0.00149188
0.00156761
0.00164812
0.00173247
0.00181579
0.00189791
0.00197751
0.00205331
0.00212416
0.00218904
0.00224719
0.00229804
0.00234126
0.00237671
0.00240444
0.0024247
0.00243787
0.00244445
0.00244509
0.00244055
0.00243169
0.00241946
0.00240494
0.00238928
0.00237372
0.00235956
0.00234812
0.00234072
0.00233857
0.00234274
0.00235401
0.00237281
0.00239908
0.00243222
0.00247105
0.00251386
0.00255856
0.00260286
0.00264458
0.00268189
0.00271354
0.00273897
0.00275832
0.00277232
0.00278206
0.00278886
0.00279402
0.00279875
0.00280403
0.00281062
0.00281905
0.00282965
0.00284254
0.00285773
0.00287511
0.00289447
0.00291556
0.00293806
0.00296162
0.00298588
0.00301042
0.00303485
0.00305875
0.00308169
0.00310327
0.00312307
0.00314072
0.00315585
0.00316811
0.00317722
0.00318292
0.003185
0.00318331
0.00317775
0.0031683
0.00315498
0.00313789
0.0031172
0.00309312
0.00306594
0.00303597
0.0030036
0.00296923
0.00293326
0.00289613
0.00285825
0.00282004
0.00278186
0.00274405
0.0027069
0.00267063
0.00263543
0.00260141
0.00256862
0.00253708
0.00250673
0.00247749
0.00244922
0.00242176
0.00239493
0.00236853
0.00234235
0.0023162
0.0022899
0.0022633
0.00223629
0.00220881
0.00218086
0.00215248
0.0021238
0.00209497
0.0020662
0.00203772
0.00200978
0.00198265
0.00195657
0.00193179
0.00190853
0.00188694
0.00186717
0.00184925
0.00183318
0.00181884
0.00180607
0.00179489
0.0017851
0.00177632
0.00176805
0.00175968
0.00175052
0.00173985
0.00172707
0.00171248
5.17459e-05
0.000398015
0.000694273
0.000884463
0.00100314
0.00107566
0.00111913
0.00114564
0.00116378
0.00117938
0.00119598
0.00121536
0.00123798
0.00126336
0.00129042
0.00131764
0.00134336
0.00136587
0.00138366
0.00139552
0.00140064
0.00139864
0.00138961
0.00137409
0.00135298
0.00132752
0.00129917
0.00126948
0.00123995
0.00121193
0.00118648
0.00116437
0.00114604
0.00113179
0.00112014
0.00110877
0.00109704
0.00108514
0.00107395
0.00106484
0.00105967
0.00106055
0.00106954
0.00108845
0.00111872
0.00116127
0.0012159
0.00128221
0.00135964
0.00144327
0.00153258
0.00162562
0.00172049
0.00181521
0.00190789
0.00199682
0.00208051
0.00215775
0.00222764
0.00228955
0.00234311
0.0023882
0.00242491
0.0024535