/*--------------------------------*- C++ -*----------------------------------*\
  =========                 |
  \\      /  F ield         | OpenFOAM: The Open Source CFD Toolbox
   \\    /   O peration     | Website:  https://openfoam.org
    \\  /    A nd           | Version:  9
     \\/     M anipulation  |
\*---------------------------------------------------------------------------*/
FoamFile
{
    format      ascii;
    class       volScalarField;
    location    "0.21";
    object      p;
}
// * * * * * * * * * * * * * * * * * * * * * * * * * * * * * * * * * * * * * //

dimensions      [0 2 -2 0 0 0 0];

internalField   nonuniform List<scalar> 
12225
(
2.40534
0.0505016
-1.11741
-1.40448
-1.55511
-1.69039
-1.78723
-1.84288
-1.87307
-1.88661
-1.88355
-1.86179
-1.81928
-1.75289
-1.65789
-1.52566
-1.34991
-1.09229
-1.23222
-1.8785
-1.92204
-1.75887
-1.70179
-1.75241
-1.80933
-1.84442
-1.86328
-1.87006
-1.86314
-1.83955
-1.79666
-1.73109
-1.63827
-1.5099
-1.3396
-1.09848
-1.33205
-1.1859
-1.35039
-1.48184
-1.57924
-1.68377
-1.76695
-1.81805
-1.84689
-1.8604
-1.85877
-1.83994
-1.8017
-1.74123
-1.65458
-1.53503
-1.37754
-1.16861
-1.18724
-1.10782
-1.39002
-1.55963
-1.63435
-1.71036
-1.7802
-1.82679
-1.85393
-1.86704
-1.86614
-1.84914
-1.81399
-1.75829
-1.67886
-1.57092
-1.43098
-1.25347
-1.20443
-1.22242
-1.45763
-1.59437
-1.65257
-1.71785
-1.7835
-1.82968
-1.85734
-1.87143
-1.87234
-1.85832
-1.82766
-1.77854
-1.70872
-1.61526
-1.49637
-1.35072
-1.26982
-1.30958
-1.48011
-1.59956
-1.66213
-1.72604
-1.78906
-1.83501
-1.8637
-1.87943
-1.88288
-1.87273
-1.84769
-1.80662
-1.74826
-1.67141
-1.57609
-1.46441
-1.3312
-1.36724
-1.49704
-1.60914
-1.677
-1.73851
-1.79773
-1.84306
-1.87304
-1.8909
-1.89755
-1.89214
-1.87388
-1.8423
-1.79716
-1.73877
-1.66891
-1.59201
-1.38654
-1.41839
-1.52256
-1.62545
-1.69415
-1.75266
-1.8084
-1.85332
-1.88494
-1.90548
-1.91604
-1.91629
-1.90595
-1.88519
-1.85474
-1.81614
-1.77255
-1.72968
-1.43933
-1.46843
-1.55332
-1.64479
-1.71195
-1.76824
-1.82135
-1.86606
-1.89957
-1.92328
-1.93842
-1.94515
-1.94367
-1.93478
-1.91999
-1.90174
-1.88411
-1.87327
-1.49041
-1.51667
-1.58627
-1.66648
-1.73109
-1.78575
-1.83688
-1.88152
-1.91711
-1.94442
-1.96471
-1.97856
-1.98665
-1.99026
-1.99149
-1.99338
-2.00041
-2.01865
-1.53965
-1.5628
-1.62051
-1.6907
-1.75207
-1.80529
-1.85498
-1.89978
-1.93763
-1.9689
-1.99478
-2.0162
-2.03423
-2.05054
-2.06756
-2.08863
-2.11823
-2.16191
-1.58298
-1.60344
-1.65273
-1.715
-1.77305
-1.82498
-1.87383
-1.91906
-1.95914
-1.99427
-2.02553
-2.05409
-2.08128
-2.10897
-2.13975
-2.17693
-2.22473
-2.28801
-1.62416
-1.64233
-1.68493
-1.74044
-1.79518
-1.84592
-1.89428
-1.94018
-1.98261
-2.02165
-2.05834
-2.09396
-2.13
-2.16844
-2.21186
-2.26339
-2.32684
-2.40624
-1.66887
-1.68484
-1.72148
-1.77068
-1.82194
-1.87143
-1.91961
-1.96658
-2.01179
-2.05532
-2.09812
-2.14149
-2.18702
-2.23665
-2.29279
-2.35821
-2.43608
-2.52951
-1.71631
-1.73027
-1.76192
-1.80568
-1.85359
-1.90191
-1.95029
-1.99878
-2.04716
-2.09558
-2.14486
-2.19624
-2.25124
-2.31161
-2.37942
-2.45687
-2.5464
-2.65007
-1.76506
-1.77734
-1.80516
-1.84463
-1.88976
-1.93719
-1.98615
-2.03657
-2.08835
-2.14169
-2.19726
-2.2561
-2.31951
-2.3889
-2.46582
-2.55184
-2.64857
-2.75713
-1.81266
-1.82374
-1.84897
-1.88557
-1.92884
-1.97591
-2.02582
-2.07835
-2.13339
-2.19107
-2.25186
-2.31651
-2.38593
-2.46107
-2.54292
-2.63237
-2.73026
-2.83696
-1.85485
-1.86532
-1.8893
-1.92462
-1.96729
-2.01474
-2.06592
-2.12043
-2.17805
-2.23875
-2.30271
-2.37032
-2.44205
-2.51839
-2.59976
-2.68651
-2.77887
-2.87673
-1.8841
-1.89466
-1.91895
-1.95491
-1.99863
-2.04745
-2.10018
-2.15625
-2.21527
-2.27693
-2.34112
-2.40782
-2.47713
-2.54913
-2.62384
-2.70118
-2.78103
-2.86305
-1.8862
-1.89773
-1.9241
-1.96298
-2.00977
-2.06115
-2.11573
-2.17297
-2.23238
-2.29344
-2.35581
-2.41936
-2.48396
-2.54948
-2.61574
-2.68254
-2.74962
-2.81662
-1.87131
-1.88406
-1.9135
-1.95685
-2.00798
-2.06259
-2.11938
-2.17806
-2.23802
-2.29857
-2.35932
-2.42009
-2.4807
-2.54095
-2.60058
-2.65936
-2.71699
-2.77318
-1.84451
-1.85854
-1.89239
-1.94256
-1.99946
-2.05762
-2.11688
-2.17748
-2.23841
-2.29871
-2.35809
-2.41649
-2.47375
-2.52963
-2.58386
-2.63622
-2.68643
-2.73424
-1.80961
-1.8239
-1.86333
-1.92368
-1.98808
-2.04985
-2.11154
-2.17425
-2.23637
-2.29671
-2.35518
-2.41187
-2.4666
-2.51914
-2.56926
-2.61678
-2.66145
-2.70308
-1.76984
-1.78278
-1.82916
-1.90188
-1.97427
-2.04054
-2.10595
-2.1712
-2.23421
-2.29438
-2.35212
-2.40753
-2.46036
-2.51037
-2.55741
-2.60132
-2.64191
-2.679
-1.7262
-1.73574
-1.79898
-1.88386
-1.95777
-2.02698
-2.09841
-2.16804
-2.23252
-2.29272
-2.35001
-2.40454
-2.45595
-2.50406
-2.5488
-2.59008
-2.62773
-2.66164
-1.67909
-1.66382
-1.77573
-1.88502
-1.9522
-2.01568
-2.08937
-2.16226
-2.22817
-2.28887
-2.3463
-2.40053
-2.45117
-2.49811
-2.54137
-2.5809
-2.61659
-2.64834
-1.65806
-1.53374
-1.7062
-1.87663
-1.96228
-2.0268
-2.09905
-2.16961
-2.23335
-2.29263
-2.34902
-2.40219
-2.45164
-2.4973
-2.53917
-2.57721
-2.61138
-2.6416
-1.80268
-1.47776
-1.53523
-1.69881
-1.83751
-1.95418
-2.05695
-2.14198
-2.21381
-2.2787
-2.33889
-2.39439
-2.44518
-2.49154
-2.53363
-2.57154
-2.60546
-2.6358
-1.86012
-2.30644
-2.28148
-2.11508
-2.03337
-2.06866
-2.13417
-2.19441
-2.25009
-2.30495
-2.35843
-2.40895
-2.45583
-2.49896
-2.53822
-2.5734
-2.60448
-2.63306
1.64937
-0.290576
-1.38353
-1.67529
-1.81356
-1.95417
-2.07304
-2.16138
-2.23327
-2.29847
-2.35883
-2.41404
-2.46427
-2.5099
-2.55098
-2.58721
-2.61798
-2.64127
-11.6583
-11.6613
-11.6725
-11.6967
-11.734
-11.7804
-11.8281
-11.8656
-11.8796
-11.8576
-11.793
-11.68
-11.5236
-11.3327
-11.1221
-10.9123
-10.7246
-10.5779
-10.4829
-10.4446
-10.4612
-10.5253
-10.6267
-10.7535
-10.8924
-11.0299
-11.1523
-11.2464
-11.2988
-11.2959
-11.2241
-11.0706
-10.8245
-10.4775
-10.0225
-9.45286
-8.76256
-7.94121
-6.99832
-5.94677
-4.8007
-3.5752
-2.28624
-0.95042
0.415429
1.79472
3.17153
4.53099
5.8596
7.14549
8.37858
9.55067
10.6555
11.6886
12.648
13.5345
14.3493
15.0909
15.759
16.3557
16.8843
17.3486
17.7527
18.1009
18.3975
18.6471
18.8538
19.0218
19.1551
19.2573
19.3321
19.3825
19.4117
19.4223
19.4169
19.3976
19.3665
19.3255
19.276
19.2196
19.1574
19.0906
19.0202
18.9469
18.8715
18.7946
18.7168
18.6386
18.5603
18.4824
18.4051
18.3288
18.2537
18.1801
18.1081
18.0381
17.97
17.9041
17.8404
17.779
17.7198
17.6628
17.608
17.5554
17.5048
17.4561
17.4093
17.3643
17.321
17.2791
17.2388
17.1998
17.162
17.1255
17.09
17.0556
17.0221
16.9895
16.9577
16.9267
16.8964
16.8669
16.8381
16.81
16.7826
16.756
16.7303
16.7056
16.682
16.6597
16.6389
16.6197
16.6025
16.5874
16.5746
16.5644
16.5568
16.552
16.55
16.5508
16.5543
16.5603
16.5684
16.5784
16.5898
16.6021
16.6149
16.6275
16.6394
16.6501
16.6591
16.6659
16.6701
16.6715
16.67
16.6657
16.6587
16.6496
16.6389
16.6273
16.6164
16.6093
16.5987
16.5904
16.5852
16.5845
16.5894
16.601
16.6204
16.6492
16.6888
16.7415
16.8105
16.901
17.0209
17.1837
17.4131
17.7451
18.2638
18.9606
-11.6989
-11.6792
-11.7191
-11.7979
-11.8862
-11.9717
-12.0466
-12.1009
-12.1244
-12.1084
-12.0422
-11.9204
-11.7399
-11.5069
-11.2378
-10.959
-10.7009
-10.4937
-10.36
-10.31
-10.3403
-10.4381
-10.5863
-10.7659
-10.9594
-11.1513
-11.3285
-11.478
-11.586
-11.637
-11.615
-11.5042
-11.2903
-10.9615
-10.5099
-9.93216
-9.22536
-8.40661
-7.47919
-6.44854
-5.32446
-4.11971
-2.84893
-1.52791
-0.172991
1.19955
2.57393
3.93534
5.27025
6.56673
7.81454
9.0053
10.1324
11.1909
12.1768
13.0866
13.9196
14.678
15.3636
15.9788
16.5269
17.0112
17.4356
17.8042
18.1211
18.3904
18.6162
18.8026
18.9534
19.0721
19.1623
19.2271
19.2696
19.2924
19.2982
19.2891
19.2674
19.2348
19.193
19.1435
19.0877
19.0266
18.9614
18.8928
18.8217
18.7488
18.6746
18.5997
18.5245
18.4495
18.3749
18.301
18.2283
18.1569
18.087
18.0189
17.9527
17.8885
17.8264
17.7663
17.7085
17.6527
17.5989
17.5471
17.4972
17.4492
17.4028
17.358
17.3148
17.2729
17.2323
17.1929
17.1547
17.1175
17.0813
17.046
17.0115
16.9779
16.945
16.9128
16.8814
16.8507
16.8208
16.7915
16.7631
16.7356
16.709
16.6836
16.6594
16.6366
16.6155
16.5963
16.5791
16.5642
16.5518
16.542
16.535
16.5309
16.5297
16.5312
16.5354
16.5421
16.5509
16.5614
16.5731
16.5857
16.5986
16.6112
16.623
16.6334
16.642
16.6483
16.6521
16.6531
16.6512
16.6467
16.6397
16.6309
16.6208
16.6101
16.5993
16.5869
16.5786
16.5722
16.5693
16.571
16.578
16.5915
16.6127
16.6427
16.683
16.7358
16.8038
16.8916
17.0062
17.1582
17.3673
17.658
18.0949
18.6761
-11.7816
-11.7657
-11.8397
-11.9647
-12.0964
-12.2174
-12.319
-12.3923
-12.4298
-12.4249
-12.3704
-12.2623
-12.0982
-11.8791
-11.6144
-11.3262
-11.0494
-10.8246
-10.6851
-10.6471
-10.7064
-10.8447
-11.0377
-11.262
-11.4975
-11.7272
-11.9356
-12.1081
-12.23
-12.2871
-12.2655
-12.1525
-11.9368
-11.6086
-11.1604
-10.5885
-9.89229
-9.07649
-8.14684
-7.11142
-5.98099
-4.76859
-3.489
-2.15814
-0.792479
0.591518
1.97794
3.35184
4.69966
6.00942
7.27093
8.47587
9.61771
10.6915
11.6936
12.6213
13.4739
14.2524
14.9584
15.5942
16.1627
16.6672
17.1116
17.4998
17.8358
18.1238
18.3677
18.5715
18.739
18.8737
18.979
19.0581
19.1139
19.1491
19.1663
19.1678
19.1557
19.1318
19.0979
19.0556
19.0062
18.951
18.891
18.8273
18.7606
18.6917
18.6213
18.5498
18.4779
18.4058
18.334
18.2628
18.1925
18.1235
18.0558
17.9898
17.9255
17.8631
17.8027
17.7443
17.6878
17.6332
17.5806
17.5297
17.4806
17.4332
17.3873
17.3428
17.2997
17.2578
17.217
17.1773
17.1386
17.1008
17.0639
17.0278
16.9924
16.9579
16.924
16.8909
16.8584
16.8268
16.7958
16.7658
16.7366
16.7084
16.6813
16.6554
16.631
16.6082
16.5872
16.5682
16.5515
16.5372
16.5255
16.5166
16.5106
16.5075
16.5073
16.5099
16.5151
16.5227
16.5323
16.5435
16.5558
16.5688
16.5818
16.5945
16.6061
16.6163
16.6245
16.6304
16.6337
16.6343
16.632
16.6273
16.6203
16.6116
16.6018
16.5917
16.5818
16.5721
16.565
16.56
16.5586
16.5615
16.57
16.585
16.6076
16.6389
16.6801
16.733
16.8003
16.8858
16.9953
17.1375
17.3268
17.5793
17.9258
18.3415
-11.8978
-11.9447
-12.0453
-12.1785
-12.3202
-12.4553
-12.5737
-12.6666
-12.7285
-12.7487
-12.7219
-12.6452
-12.517
-12.3399
-12.1245
-11.8923
-11.6748
-11.509
-11.425
-11.4364
-11.5382
-11.7129
-11.939
-12.195
-12.462
-12.7222
-12.9589
-13.156
-13.2976
-13.3686
-13.3544
-13.2421
-13.0201
-12.679
-12.2121
-11.6162
-10.8915
-10.0416
-9.07281
-7.99428
-6.81786
-5.55764
-4.22945
-2.85022
-1.43739
-0.00827331
1.42052
2.83354
4.21687
5.55839
6.84792
8.07725
9.24009
10.3319
11.3495
12.2912
13.157
13.9485
14.6671
15.3148
15.8948
16.4105
16.8657
17.2645
17.6109
17.9092
18.1634
18.3774
18.5551
18.7
18.8155
18.9047
18.9705
19.0155
19.0422
19.0528
19.0492
19.0334
19.0071
18.9717
18.9287
18.8793
18.8246
18.7657
18.7034
18.6385
18.5717
18.5036
18.4347
18.3654
18.2962
18.2274
18.1593
18.0923
18.0265
17.9622
17.8995
17.8386
17.7794
17.7221
17.6667
17.613
17.5611
17.5109
17.4624
17.4153
17.3696
17.3253
17.2822
17.2402
17.1992
17.1592
17.1202
17.0819
17.0445
17.0078
16.9718
16.9366
16.9021
16.8683
16.8352
16.8029
16.7715
16.7409
16.7113
16.6828
16.6555
16.6296
16.6052
16.5826
16.5619
16.5433
16.5271
16.5135
16.5026
16.4945
16.4894
16.4872
16.488
16.4915
16.4976
16.5059
16.5162
16.528
16.5408
16.5541
16.5674
16.5801
16.5917
16.6018
16.6097
16.6153
16.6183
16.6185
16.6161
16.6111
16.6041
16.5955
16.5859
16.5761
16.5664
16.5575
16.5509
16.547
16.5468
16.5511
16.5611
16.5775
16.6012
16.6333
16.6749
16.7274
16.7932
16.8752
16.9783
17.109
17.2767
17.4907
17.7566
18.049
-11.7986
-11.8958
-12.0147
-12.1543
-12.3056
-12.4568
-12.599
-12.7241
-12.8227
-12.8888
-12.916
-12.9004
-12.8423
-12.747
-12.6276
-12.5059
-12.4101
-12.3676
-12.3972
-12.5044
-12.6828
-12.9189
-13.1961
-13.4976
-13.8059
-14.104
-14.3747
-14.6008
-14.7654
-14.8521
-14.8457
-14.7321
-14.4994
-14.1379
-13.6413
-13.0065
-12.2341
-11.3281
-10.2957
-9.1476
-7.89706
-6.55993
-5.15375
-3.69718
-2.20924
-0.708608
0.786968
2.26123
3.6998
5.09039
6.42293
7.68953
8.88436
10.0034
11.0442
12.0058
12.889
13.6957
14.4279
15.088
15.6792
16.2054
16.6703
17.0781
17.433
17.7393
18.0011
18.2224
18.407
18.5588
18.681
18.777
18.8496
18.9015
18.9351
18.9526
18.956
18.9469
18.9271
18.8978
18.8606
18.8165
18.7667
18.7123
18.654
18.5927
18.5292
18.464
18.3977
18.3308
18.2637
18.1968
18.1304
18.0649
18.0005
17.9374
17.8758
17.8158
17.7574
17.7008
17.6459
17.5927
17.5412
17.4913
17.4429
17.3959
17.3503
17.3059
17.2627
17.2205
17.1794
17.1392
17.0998
17.0613
17.0235
16.9865
16.9503
16.9147
16.8799
16.8459
16.8126
16.7802
16.7486
16.718
16.6884
16.66
16.6329
16.6072
16.5832
16.561
16.5408
16.5228
16.5073
16.4944
16.4842
16.477
16.4727
16.4714
16.4729
16.4772
16.484
16.4931
16.5039
16.5162
16.5295
16.5431
16.5566
16.5694
16.5811
16.5911
16.599
16.6045
16.6074
16.6075
16.605
16.6001
16.5932
16.5848
16.5754
16.5659
16.5566
16.5484
16.5423
16.5392
16.5397
16.5448
16.5554
16.5722
16.5962
16.6281
16.669
16.72
16.783
16.8603
16.9555
17.073
17.2183
17.3954
17.5957
17.804
-11.3769
-11.4939
-11.6504
-11.814
-11.9815
-12.1513
-12.3179
-12.4779
-12.6234
-12.7489
-12.8504
-12.9266
-12.9796
-13.0166
-13.0502
-13.0976
-13.1777
-13.306
-13.491
-13.7332
-14.0265
-14.3607
-14.7236
-15.1008
-15.4771
-15.836
-16.1602
-16.4317
-16.6328
-16.7457
-16.7539
-16.6423
-16.3981
-16.011
-15.475
-14.7873
-13.9489
-12.9651
-11.8444
-10.5996
-9.24617
-7.8024
-6.28838
-4.72522
-3.13426
-1.53617
0.0497239
1.60607
3.11791
4.57286
5.96114
7.27548
8.51086
9.66418
10.734
11.7202
12.6248
13.4501
14.1984
14.8731
15.4776
16.0158
16.4919
16.9101
17.2746
17.5897
17.8596
18.0884
18.2799
18.438
18.5661
18.6675
18.7454
18.8024
18.8412
18.8638
18.8724
18.8687
18.8541
18.8302
18.7982
18.7591
18.714
18.6638
18.6095
18.5518
18.4914
18.429
18.3652
18.3005
18.2352
18.17
18.105
18.0407
17.9773
17.915
17.8541
17.7946
17.7367
17.6804
17.6257
17.5726
17.5211
17.4711
17.4226
17.3755
17.3297
17.2851
17.2416
17.1992
17.1578
17.1174
17.0778
17.039
17.0011
16.964
16.9276
16.892
16.8572
16.8231
16.79
16.7577
16.7263
16.6959
16.6667
16.6387
16.612
16.5869
16.5634
16.5418
16.5223
16.5051
16.4904
16.4782
16.4689
16.4625
16.4589
16.4584
16.4606
16.4656
16.473
16.4826
16.494
16.5067
16.5203
16.5342
16.5479
16.5609
16.5727
16.5827
16.5907
16.5962
16.5991
16.5994
16.5971
16.5924
16.5858
16.5777
16.5688
16.5597
16.551
16.5434
16.5379
16.5352
16.5362
16.5417
16.5525
16.5693
16.5929
16.624
16.6635
16.7122
16.7715
16.8431
16.9295
17.0333
17.1568
17.3007
17.4493
17.5976
-10.6381
-10.7913
-11.0032
-11.1987
-11.3823
-11.5679
-11.76
-11.9567
-12.1563
-12.3568
-12.5566
-12.7559
-12.9575
-13.1674
-13.3939
-13.6465
-13.9341
-14.2626
-14.634
-15.046
-15.4931
-15.9669
-16.4568
-16.9502
-17.4323
-17.8868
-18.2957
-18.6402
-18.9008
-19.0583
-19.0947
-18.9933
-18.74
-18.3243
-17.7404
-16.986
-16.063
-14.9782
-13.7425
-12.3711
-10.8827
-9.29908
-7.6437
-5.94117
-4.21605
-2.4918
-0.789907
0.870834
2.47476
4.00951
5.46587
6.83755
8.12074
9.31369
10.4164
11.4305
12.3589
13.2043
13.9702
14.6605
15.2791
15.8304
16.3187
16.7483
17.1235
17.4487
17.728
17.9655
18.165
18.3303
18.4649
18.5722
18.6553
18.7171
18.7602
18.787
18.7995
18.7998
18.7893
18.7696
18.7417
18.7068
18.6659
18.6197
18.5692
18.515
18.4577
18.3981
18.3367
18.2741
18.2106
18.1468
18.0831
18.0197
17.957
17.8953
17.8347
17.7755
17.7176
17.6613
17.6064
17.5531
17.5013
17.451
17.402
17.3545
17.3083
17.2633
17.2194
17.1766
17.1349
17.0942
17.0544
17.0154
16.9774
16.9402
16.9039
16.8684
16.8337
16.8
16.7671
16.7352
16.7043
16.6744
16.6458
16.6184
16.5924
16.568
16.5453
16.5245
16.5059
16.4895
16.4755
16.4642
16.4557
16.45
16.4472
16.4473
16.4502
16.4557
16.4637
16.4737
16.4854
16.4984
16.5122
16.5263
16.5402
16.5533
16.5652
16.5754
16.5835
16.5892
16.5924
16.593
16.591
16.5868
16.5808
16.5733
16.565
16.5565
16.5484
16.5415
16.5366
16.5345
16.5359
16.5416
16.5524
16.5689
16.5918
16.6217
16.6592
16.705
16.7601
16.8255
16.9028
16.9931
17.0964
17.2114
17.3191
17.4234
-9.71825
-9.95141
-10.2073
-10.4307
-10.6346
-10.8423
-11.0647
-11.3068
-11.5717
-11.8607
-12.1748
-12.5146
-12.8818
-13.2791
-13.7095
-14.176
-14.6803
-15.2225
-15.8007
-16.4107
-17.0463
-17.699
-18.3583
-19.0111
-19.6421
-20.2337
-20.7664
-21.219
-21.5701
-21.7979
-21.8822
-21.8044
-21.5487
-21.1046
-20.4664
-19.6322
-18.6057
-17.3955
-16.0155
-14.4846
-12.8255
-11.0644
-9.22947
-7.35013
-5.45531
-3.57231
-1.7256
0.0641625
1.7805
3.41122
4.94805
6.38622
7.72364
8.9606
10.0995
11.1436
12.0964
12.9622
13.7456
14.4512
15.0837
15.6478
16.148
16.5891
16.9753
17.311
17.6004
17.8474
18.056
18.2297
18.372
18.4863
18.5756
18.6429
18.6907
18.7217
18.7379
18.7415
18.7342
18.7176
18.6928
18.6612
18.6235
18.5807
18.5334
18.4823
18.428
18.371
18.312
18.2514
18.1896
18.1272
18.0645
18.0019
17.9397
17.8783
17.8178
17.7585
17.7004
17.6437
17.5884
17.5345
17.4821
17.4312
17.3816
17.3334
17.2865
17.2409
17.1965
17.1532
17.1111
17.07
17.0299
16.9909
16.9528
16.9156
16.8794
16.8441
16.8098
16.7765
16.7441
16.7128
16.6825
16.6534
16.6255
16.5989
16.5738
16.5503
16.5285
16.5086
16.4909
16.4754
16.4623
16.4519
16.4441
16.4391
16.437
16.4376
16.441
16.447
16.4552
16.4655
16.4774
16.4906
16.5045
16.5187
16.5326
16.5459
16.5579
16.5683
16.5766
16.5827
16.5862
16.5873
16.586
16.5826
16.5773
16.5707
16.5633
16.5557
16.5485
16.5424
16.5383
16.5367
16.5386
16.5445
16.5552
16.5712
16.5932
16.6215
16.6568
16.6994
16.75
16.809
16.8772
16.9547
17.0398
17.13
17.2056
17.277
-8.82303
-9.10081
-9.40521
-9.65987
-9.88981
-10.1278
-10.3903
-10.6868
-11.0242
-11.4069
-11.8372
-12.3161
-12.8441
-13.4208
-14.0457
-14.7177
-15.4346
-16.1933
-16.9896
-17.8174
-18.6693
-19.5354
-20.4035
-21.2587
-22.0835
-22.8574
-23.5577
-24.1598
-24.6385
-24.9686
-25.1263
-25.0903
-24.8432
-24.3744
-23.678
-22.7528
-21.6042
-20.2438
-18.6893
-16.9638
-15.0952
-13.1151
-11.0581
-8.95957
-6.85457
-4.77568
-2.75145
-0.805108
1.04584
2.78965
4.4195
5.93287
7.3305
8.61593
9.79345
10.8678
11.845
12.7307
13.5307
14.2506
14.8957
15.4713
15.9824
16.4338
16.8302
17.1759
17.4751
17.7318
17.9497
18.1324
18.2833
18.4056
18.5022
18.5761
18.6297
18.6657
18.6862
18.6934
18.6892
18.6752
18.6529
18.6236
18.5882
18.5478
18.5029
18.4542
18.4023
18.3477
18.2908
18.232
18.1718
18.1106
18.0489
17.987
17.9252
17.8639
17.8034
17.7437
17.6852
17.6279
17.5719
17.5172
17.464
17.4121
17.3616
17.3126
17.2649
17.2185
17.1733
17.1295
17.0868
17.0453
17.0049
16.9657
16.9276
16.8905
16.8545
16.8195
16.7856
16.7528
16.7211
16.6904
16.661
16.6327
16.6057
16.5801
16.556
16.5334
16.5127
16.4938
16.477
16.4625
16.4503
16.4406
16.4335
16.4292
16.4276
16.4287
16.4324
16.4386
16.447
16.4574
16.4694
16.4825
16.4964
16.5106
16.5246
16.5379
16.55
16.5606
16.5693
16.5758
16.58
16.5818
16.5814
16.5789
16.5748
16.5693
16.5631
16.5567
16.5507
16.5457
16.5425
16.5418
16.5442
16.5504
16.561
16.5765
16.5975
16.6242
16.657
16.6963
16.7421
16.7948
16.8541
16.9197
16.9886
17.0579
17.1082
17.1544
-8.08635
-8.38692
-8.72189
-9.00207
-9.25877
-9.52986
-9.8351
-10.187
-10.5948
-11.0651
-11.6014
-12.2052
-12.8763
-13.6136
-14.4149
-15.2774
-16.1975
-17.1705
-18.1906
-19.2505
-20.3409
-21.45
-22.5629
-23.6618
-24.725
-25.7277
-26.642
-27.4381
-28.0851
-28.5528
-28.813
-28.8404
-28.6155
-28.1288
-27.3727
-26.3473
-25.0606
-23.528
-21.7713
-19.8183
-17.7027
-15.4625
-13.1393
-10.7766
-8.4173
-6.1014
-3.86348
-1.73031
0.279081
2.15366
3.8891
5.48693
6.95142
8.28831
9.50534
10.6104
11.6115
12.516
13.3312
14.0637
14.7198
15.3052
15.8255
16.2859
16.691
17.0454
17.3534
17.619
17.8458
18.0374
18.1969
18.3276
18.4322
18.5135
18.5739
18.6159
18.6417
18.6533
18.6528
18.6418
18.6219
18.5946
18.561
18.5222
18.4789
18.4318
18.3816
18.3286
18.2732
18.2159
18.157
18.0969
18.036
17.9746
17.9131
17.8519
17.7911
17.731
17.6718
17.6138
17.5568
17.5012
17.4469
17.394
17.3424
17.2923
17.2436
17.1963
17.1503
17.1057
17.0624
17.0204
16.9797
16.9403
16.9021
16.8651
16.8293
16.7947
16.7613
16.7291
16.6981
16.6682
16.6396
16.6123
16.5863
16.5618
16.5387
16.5173
16.4975
16.4797
16.4639
16.4502
16.4389
16.43
16.4236
16.4198
16.4186
16.42
16.4239
16.4302
16.4386
16.4489
16.4607
16.4737
16.4875
16.5015
16.5154
16.5287
16.5409
16.5518
16.5609
16.568
16.573
16.5758
16.5766
16.5754
16.5726
16.5687
16.564
16.5591
16.5546
16.5511
16.5491
16.5494
16.5526
16.5592
16.5698
16.5849
16.6049
16.63
16.6603
16.6961
16.7373
16.7837
16.8348
16.8893
16.944
16.9956
17.0259
17.0523
-7.56739
-7.86803
-8.20686
-8.50019
-8.77781
-9.07749
-9.42034
-9.82041
-10.2887
-10.833
-11.4584
-12.1673
-12.9604
-13.8369
-14.795
-15.832
-16.9441
-18.1263
-19.3725
-20.674
-22.0201
-23.3965
-24.7855
-26.1646
-27.5072
-28.782
-29.9539
-30.9855
-31.8384
-32.4756
-32.8635
-32.9711
-32.7747
-32.2774
-31.4595
-30.3268
-28.8918
-27.1739
-25.1991
-22.9992
-20.6121
-18.0817
-15.4569
-12.7903
-10.1352
-7.54195
-5.05446
-2.70482
-0.51386
1.50942
3.36443
5.05528
6.59068
7.98154
9.2392
10.3748
11.399
12.3211
13.1501
13.8937
14.559
15.1526
15.6804
16.1479
16.5602
16.9219
17.2373
17.5105
17.7452
17.9449
18.1126
18.2514
18.3641
18.4531
18.5209
18.5697
18.6016
18.6186
18.6226
18.6154
18.5985
18.5735
18.5416
18.5041
18.4618
18.4157
18.3663
18.3142
18.2597
18.2033
18.1452
18.0858
18.0254
17.9644
17.903
17.8416
17.7805
17.7199
17.66
17.601
17.5431
17.4864
17.4309
17.3767
17.324
17.2727
17.2228
17.1745
17.1276
17.0821
17.0382
16.9956
16.9545
16.9148
16.8766
16.8396
16.8041
16.7699
16.737
16.7054
16.6751
16.6461
16.6184
16.5921
16.5672
16.5437
16.5217
16.5014
16.4827
16.4659
16.4511
16.4383
16.4277
16.4195
16.4137
16.4103
16.4094
16.4109
16.4149
16.4211
16.4293
16.4393
16.4509
16.4635
16.477
16.4908
16.5045
16.5178
16.5302
16.5413
16.5509
16.5588
16.5648
16.5688
16.5709
16.5714
16.5703
16.5683
16.5655
16.5625
16.5599
16.5581
16.5577
16.5593
16.5635
16.5708
16.5817
16.5965
16.6156
16.6391
16.6671
16.6995
16.7362
16.7766
16.8198
16.8643
16.9065
16.9431
16.9574
16.9679
-7.24366
-7.52151
-7.84122
-8.13229
-8.42003
-8.73875
-9.10909
-9.54568
-10.0604
-10.6626
-11.3586
-12.1526
-13.0469
-14.0423
-15.1383
-16.3335
-17.625
-19.0086
-20.478
-22.0246
-23.6359
-25.2956
-26.9821
-28.668
-30.3197
-31.8974
-33.3567
-34.6498
-35.7292
-36.5494
-37.0703
-37.2597
-37.0988
-36.569
-35.6779
-34.4335
-32.8516
-30.9551
-28.7719
-26.3348
-23.6824
-20.8608
-17.9248
-14.9366
-11.9622
-9.06539
-6.30333
-3.71422
-1.32083
0.866733
2.85039
4.64017
6.25017
7.69642
8.99492
10.1606
11.2069
12.1456
12.9871
13.7404
14.4137
15.014
15.5479
16.0211
16.4389
16.8064
17.1279
17.4074
17.6489
17.8556
18.0307
18.177
18.2973
18.3939
18.4692
18.5251
18.5637
18.5868
18.5962
18.5935
18.5804
18.5583
18.5286
18.4926
18.4513
18.4058
18.3568
18.3049
18.2506
18.1944
18.1365
18.0773
18.017
17.956
17.8945
17.8328
17.7712
17.71
17.6493
17.5893
17.5303
17.4723
17.4156
17.3602
17.3062
17.2536
17.2026
17.1531
17.1051
17.0588
17.0141
16.971
16.9294
16.8895
16.851
16.8142
16.7788
16.7449
16.7125
16.6816
16.652
16.6239
16.5971
16.5718
16.5479
16.5255
16.5047
16.4854
16.4678
16.452
16.4381
16.4262
16.4163
16.4087
16.4033
16.4002
16.3995
16.4011
16.4049
16.4109
16.4187
16.4284
16.4394
16.4517
16.4647
16.4781
16.4916
16.5048
16.5173
16.5288
16.539
16.5478
16.5549
16.5603
16.5641
16.5664
16.5674
16.5675
16.567
16.5664
16.566
16.5663
16.5679
16.5712
16.5767
16.585
16.5963
16.6111
16.6295
16.6516
16.6773
16.7066
16.7389
16.7737
16.8097
16.8451
16.8763
16.9001
16.9015
16.8988
-7.03104
-7.27063
-7.55422
-7.82955
-8.11644
-8.44367
-8.83029
-9.29089
-9.838
-10.4821
-11.2313
-12.0918
-13.068
-14.1628
-15.3778
-16.7134
-18.1685
-19.7401
-21.4227
-23.2075
-25.0813
-27.025
-29.0129
-31.0111
-32.9773
-34.8612
-36.6062
-38.1529
-39.443
-40.4234
-41.0489
-41.2869
-41.1242
-40.557
-39.5916
-38.2439
-36.5352
-34.4914
-32.1405
-29.5127
-26.6425
-23.5734
-20.3618
-17.0771
-13.798
-10.6028
-7.56082
-4.723
-2.11978
0.237887
2.3544
4.24481
5.92957
7.43064
8.76907
9.96382
11.0313
11.9857
12.8389
13.6012
14.2815
14.8876
15.4264
15.9042
16.3267
16.6987
17.0251
17.3099
17.5569
17.7697
17.9512
18.1043
18.2317
18.3355
18.4179
18.4809
18.5264
18.5559
18.5712
18.5738
18.5652
18.5468
18.52
18.486
18.446
18.4012
18.3524
18.3004
18.2458
18.1892
18.1309
18.0712
18.0105
17.9491
17.8871
17.8249
17.7627
17.7006
17.639
17.578
17.5178
17.4587
17.4007
17.3439
17.2886
17.2347
17.1825
17.1318
17.0829
17.0356
16.9901
16.9463
16.9043
16.864
16.8254
16.7886
16.7534
16.7198
16.6879
16.6575
16.6287
16.6013
16.5755
16.5511
16.5283
16.5069
16.4871
16.4689
16.4523
16.4375
16.4244
16.4133
16.4041
16.397
16.392
16.3891
16.3885
16.39
16.3936
16.3991
16.4066
16.4157
16.4261
16.4378
16.4503
16.4633
16.4765
16.4896
16.5022
16.5141
16.525
16.5346
16.543
16.55
16.5557
16.5601
16.5635
16.5661
16.5682
16.5702
16.5724
16.5752
16.5791
16.5845
16.5918
16.6013
16.6135
16.6285
16.6464
16.6673
16.6911
16.7174
16.7457
16.7752
16.8045
16.8317
16.8533
16.8661
16.8569
16.8428
-6.82681
-7.01968
-7.25701
-7.50692
-7.78385
-8.11021
-8.50283
-8.97591
-9.54242
-10.2139
-11.0004
-11.9099
-12.9493
-14.1237
-15.4371
-16.892
-18.4892
-20.2271
-22.1013
-24.1029
-26.2173
-28.4227
-30.6881
-32.9719
-35.2218
-37.3753
-39.3637
-41.1163
-42.5661
-43.6555
-44.3376
-44.5841
-44.4041
-43.7885
-42.7542
-41.3234
-39.5227
-37.3802
-34.9234
-32.1785
-29.1741
-25.9461
-22.5426
-19.0319
-15.5011
-12.0444
-8.7469
-5.67678
-2.87533
-0.357008
1.88479
3.87006
5.62524
7.17802
8.5543
9.77682
10.8648
11.8345
12.6991
13.4702
14.1572
14.7688
15.3123
15.7942
16.2206
16.5966
16.9271
17.2163
17.4682
17.6862
17.8734
18.0327
18.1664
18.2769
18.3662
18.4361
18.4883
18.5244
18.546
18.5543
18.5507
18.5367
18.5134
18.4821
18.444
18.4003
18.3519
18.2998
18.2448
18.1874
18.1282
18.0676
18.006
17.9436
17.8808
17.8176
17.7544
17.6914
17.6287
17.5666
17.5052
17.4448
17.3855
17.3274
17.2708
17.2156
17.1621
17.1103
17.0603
17.0122
16.9658
16.9214
16.8789
16.8383
16.7995
16.7627
16.7276
16.6943
16.6628
16.6329
16.6048
16.5782
16.5532
16.5297
16.5078
16.4875
16.4686
16.4514
16.4358
16.4218
16.4096
16.3992
16.3906
16.384
16.3793
16.3766
16.3759
16.3773
16.3805
16.3857
16.3926
16.401
16.4109
16.4219
16.4338
16.4463
16.4592
16.4721
16.4848
16.4971
16.5087
16.5195
16.5292
16.5379
16.5456
16.5524
16.5583
16.5637
16.5686
16.5735
16.5787
16.5844
16.5909
16.5988
16.6081
16.6193
16.6326
16.6482
16.666
16.686
16.7081
16.7317
16.7563
16.7809
16.8041
16.824
16.8369
16.8402
16.8221
16.798
-6.53408
-6.67898
-6.86552
-7.08367
-7.34378
-7.66157
-8.05127
-8.52652
-9.1006
-9.78608
-10.5945
-11.5359
-12.6193
-13.8521
-15.2403
-16.7884
-18.4988
-20.3711
-22.4013
-24.5798
-26.8903
-29.3071
-31.7933
-34.2992
-36.7628
-39.1116
-41.2673
-43.1524
-44.697
-45.8459
-46.5601
-46.8213
-46.6226
-45.9784
-44.908
-43.4364
-41.5942
-39.4121
-36.917
-34.1312
-31.0737
-27.7689
-24.2562
-20.6007
-16.8931
-13.2405
-9.74648
-6.49407
-3.53452
-0.8864
1.45764
3.52128
5.33564
6.93291
8.34274
9.59074
10.6983
11.6829
12.5592
13.3394
14.0337
14.6511
15.1995
15.6857
16.116
16.4959
16.8303
17.1237
17.3801
17.603
17.7955
17.9604
18.1001
18.2169
18.3127
18.3892
18.4481
18.4908
18.5187
18.533
18.5349
18.5258
18.5066
18.4787
18.4432
18.4012
18.3537
18.3018
18.2463
18.1881
18.1278
18.066
18.003
17.9393
17.8751
17.8107
17.7462
17.682
17.618
17.5546
17.4919
17.4302
17.3695
17.3102
17.2522
17.1958
17.1411
17.0882
17.0372
16.9881
16.941
16.8959
16.8529
16.8119
16.773
16.7361
16.7011
16.6681
16.6369
16.6076
16.58
16.5541
16.5298
16.5072
16.4862
16.4668
16.4489
16.4326
16.4178
16.4047
16.3932
16.3835
16.3755
16.3692
16.3648
16.3623
16.3616
16.3627
16.3657
16.3703
16.3767
16.3845
16.3936
16.404
16.4153
16.4273
16.4398
16.4527
16.4655
16.4782
16.4906
16.5024
16.5136
16.5241
16.5339
16.5431
16.5518
16.56
16.5681
16.5762
16.5845
16.5933
16.6029
16.6134
16.6252
16.6385
16.6532
16.6697
16.6877
16.7072
16.7278
16.7491
16.7703
16.7906
16.8082
16.8214
16.8267
16.8215
16.7958
16.7628
-6.05985
-6.1724
-6.30775
-6.49121
-6.72961
-7.03232
-7.41123
-7.87954
-8.45079
-9.13846
-9.95535
-10.9133
-12.0229
-13.2934
-14.7324
-16.3458
-18.1367
-20.1052
-22.2465
-24.5499
-26.9963
-29.556
-32.1871
-34.8338
-37.428
-39.8918
-42.1433
-44.1033
-45.7029
-46.8873
-47.6212
-47.891
-47.696
-47.0485
-45.9721
-44.4963
-42.6555
-40.4828
-38.0049
-35.2392
-32.1959
-28.8875
-25.3431
-21.6227
-17.8206
-14.0541
-10.4411
-7.07692
-4.02054
-1.29327
1.11324
3.22551
5.07784
6.70518
8.1392
9.40689
10.5305
11.5284
12.4155
13.2045
13.906
14.5294
15.0829
15.5736
16.0081
16.392
16.7305
17.0282
17.289
17.5167
17.7144
17.8848
18.0304
18.1533
18.2555
18.3386
18.4041
18.4534
18.4878
18.5083
18.5161
18.5122
18.4978
18.4739
18.4416
18.4019
18.3559
18.3046
18.2492
18.1903
18.1289
18.0657
18.0011
17.9357
17.8698
17.8037
17.7377
17.6718
17.6063
17.5415
17.4773
17.4142
17.3521
17.2914
17.2321
17.1744
17.1185
17.0645
17.0125
16.9625
16.9146
16.869
16.8255
16.7842
16.745
16.708
16.6732
16.6403
16.6095
16.5806
16.5536
16.5283
16.5048
16.483
16.4628
16.4442
16.4272
16.4117
16.3978
16.3855
16.3748
16.3656
16.3581
16.3523
16.3482
16.3457
16.345
16.346
16.3486
16.3528
16.3586
16.3658
16.3744
16.3841
16.3948
16.4064
16.4186
16.4313
16.4444
16.4575
16.4707
16.4836
16.4964
16.5087
16.5208
16.5325
16.544
16.5553
16.5666
16.578
16.5897
16.6019
16.6146
16.6282
16.6427
16.6582
16.6748
16.6925
16.711
16.7303
16.7498
16.7691
16.7874
16.8036
16.8162
16.8233
16.8218
16.8091
16.7767
16.7355
-5.39144
-5.46093
-5.55829
-5.71359
-5.92899
-6.2113
-6.57208
-7.02455
-7.58264
-8.26041
-9.07159
-10.029
-11.1443
-12.4274
-13.8866
-15.5277
-17.3537
-19.3638
-21.5519
-23.9051
-26.4019
-29.0098
-31.684
-34.3669
-36.9891
-39.4733
-41.7396
-43.7118
-45.324
-46.5243
-47.2787
-47.5731
-47.4076
-46.797
-45.7641
-44.3402
-42.561
-40.4596
-38.0604
-35.3753
-32.4058
-29.1548
-25.6444
-21.9337
-18.1218
-14.335
-10.7001
-7.31777
-4.24869
-1.51293
0.900075
3.01882
4.87869
6.51482
7.95851
9.23614
10.3694
11.3763
12.2714
13.0675
13.7753
14.4043
14.9627
15.4579
15.8967
16.2848
16.6276
16.9296
17.1951
17.4276
17.6304
17.8062
17.9575
18.0864
18.1948
18.2842
18.3561
18.4118
18.4525
18.4792
18.4929
18.4946
18.4852
18.4657
18.437
18.4002
18.3564
18.3064
18.2514
18.1924
18.1302
18.0657
17.9996
17.9324
17.8647
17.7967
17.7288
17.6611
17.5939
17.5274
17.4617
17.397
17.3335
17.2713
17.2107
17.1518
17.0948
17.0397
16.9867
16.9359
16.8873
16.8411
16.7971
16.7555
16.7162
16.6791
16.6443
16.6117
16.5812
16.5527
16.5261
16.5015
16.4786
16.4575
16.438
16.4202
16.404