/*--------------------------------*- C++ -*----------------------------------*\
  =========                 |
  \\      /  F ield         | OpenFOAM: The Open Source CFD Toolbox
   \\    /   O peration     | Website:  https://openfoam.org
    \\  /    A nd           | Version:  9
     \\/     M anipulation  |
\*---------------------------------------------------------------------------*/
FoamFile
{
    format      ascii;
    class       surfaceScalarField;
    location    "0.21";
    object      phi;
}
// * * * * * * * * * * * * * * * * * * * * * * * * * * * * * * * * * * * * * //

dimensions      [0 3 -1 0 0 0 0];

internalField   nonuniform List<scalar> 
24170
(
3.13643e-06
5.19796e-08
3.04986e-06
8.65636e-08
2.97348e-06
7.63807e-08
2.90335e-06
7.0135e-08
2.83686e-06
6.64891e-08
2.7782e-06
5.86535e-08
2.72782e-06
5.03848e-08
2.68466e-06
4.31562e-08
2.64732e-06
3.73438e-08
2.61448e-06
3.28383e-08
2.58504e-06
2.94372e-08
2.55805e-06
2.69983e-08
2.53261e-06
2.54315e-08
2.50791e-06
2.4708e-08
2.48307e-06
2.4833e-08
2.45698e-06
2.60969e-08
2.42887e-06
2.81057e-08
3.4779e-08
2.39409e-06
3.45185e-06
1.73766e-08
3.45434e-06
8.40779e-08
3.44799e-06
8.27294e-08
3.4366e-06
8.15256e-08
3.42209e-06
8.09959e-08
3.40409e-06
7.66571e-08
3.38367e-06
7.08045e-08
3.36166e-06
6.51685e-08
3.33884e-06
6.01573e-08
3.31582e-06
5.58595e-08
3.29294e-06
5.23168e-08
3.27036e-06
4.95829e-08
3.24808e-06
4.77137e-08
3.22597e-06
4.68117e-08
3.20385e-06
4.69505e-08
3.18126e-06
4.86936e-08
3.15775e-06
5.16168e-08
6.04423e-08
3.13208e-06
3.6641e-06
1.57942e-08
3.67736e-06
7.0819e-08
3.68439e-06
7.5696e-08
3.68833e-06
7.75888e-08
3.68959e-06
7.97307e-08
3.68778e-06
7.8466e-08
3.68346e-06
7.51319e-08
3.67715e-06
7.14717e-08
3.66926e-06
6.8051e-08
3.66008e-06
6.5043e-08
3.64982e-06
6.25767e-08
3.63861e-06
6.07908e-08
3.6265e-06
5.98239e-08
3.61345e-06
5.9861e-08
3.59931e-06
6.10901e-08
3.58392e-06
6.40814e-08
3.56662e-06
6.89211e-08
7.80295e-08
3.54903e-06
3.92446e-06
1.67182e-08
3.93552e-06
5.97655e-08
3.94181e-06
6.94057e-08
3.94671e-06
7.2683e-08
3.95053e-06
7.59193e-08
3.95267e-06
7.63222e-08
3.95327e-06
7.45276e-08
3.95259e-06
7.21511e-08
3.95077e-06
6.98739e-08
3.9479e-06
6.79119e-08
3.94405e-06
6.64254e-08
3.93925e-06
6.55928e-08
3.93348e-06
6.56001e-08
3.92666e-06
6.66773e-08
3.91866e-06
6.90918e-08
3.90938e-06
7.33614e-08
3.89844e-06
7.98615e-08
9.00127e-08
3.88645e-06
4.20775e-06
1.60977e-08
4.21573e-06
5.17831e-08
4.22094e-06
6.4195e-08
4.22529e-06
6.83345e-08
4.22933e-06
7.1882e-08
4.23245e-06
7.31952e-08
4.23454e-06
7.24458e-08
4.23568e-06
7.10089e-08
4.23595e-06
6.96028e-08
4.23539e-06
6.84738e-08
4.23401e-06
6.78017e-08
4.23181e-06
6.77895e-08
4.22876e-06
6.86529e-08
4.22479e-06
7.06462e-08
4.21981e-06
7.40739e-08
4.21377e-06
7.9404e-08
4.20652e-06
8.71089e-08
9.82063e-08
4.19833e-06
4.51036e-06
1.48249e-08
4.51654e-06
4.56057e-08
4.52145e-06
5.92843e-08
4.52553e-06
6.42503e-08
4.52944e-06
6.79707e-08
4.53276e-06
6.98765e-08
4.53528e-06
6.9924e-08
4.53705e-06
6.924e-08
4.53811e-06
6.85425e-08
4.53848e-06
6.81088e-08
4.53815e-06
6.81343e-08
4.5371e-06
6.8836e-08
4.53531e-06
7.04446e-08
4.53273e-06
7.32215e-08
4.52933e-06
7.74757e-08
4.52511e-06
8.36227e-08
4.52011e-06
9.21127e-08
1.03696e-07
4.51462e-06
4.83401e-06
1.35383e-08
4.83923e-06
4.03831e-08
4.84409e-06
5.4427e-08
4.8481e-06
6.02414e-08
4.85188e-06
6.41888e-08
4.85521e-06
6.65447e-08
4.85789e-06
6.72465e-08
4.85992e-06
6.72037e-08
4.86135e-06
6.71125e-08
4.86218e-06
6.72795e-08
4.8624e-06
6.79128e-08
4.86201e-06
6.92341e-08
4.86097e-06
7.14773e-08
4.8593e-06
7.48964e-08
4.85699e-06
7.97808e-08
4.85413e-06
8.64823e-08
4.85088e-06
9.53683e-08
1.06977e-07
4.8476e-06
5.18079e-06
1.23318e-08
5.18534e-06
3.58256e-08
5.19007e-06
4.97022e-08
5.19406e-06
5.62515e-08
5.19778e-06
6.04655e-08
5.20114e-06
6.31903e-08
5.20393e-06
6.4455e-08
5.20615e-06
6.49845e-08
5.20783e-06
6.54322e-08
5.20898e-06
6.61282e-08
5.2096e-06
6.72902e-08
5.2097e-06
6.91378e-08
5.20928e-06
7.18971e-08
5.20837e-06
7.5803e-08
5.20705e-06
8.11076e-08
5.20544e-06
8.80893e-08
5.2038e-06
9.70108e-08
1.0823e-07
5.20254e-06
5.55249e-06
1.11747e-08
5.55648e-06
3.18352e-08
5.56098e-06
4.52041e-08
5.56496e-06
5.2273e-08
5.56868e-06
5.67486e-08
5.57209e-06
5.97811e-08
5.57501e-06
6.15324e-08
5.57742e-06
6.25775e-08
5.57934e-06
6.35087e-08
5.5808e-06
6.46687e-08
5.58181e-06
6.62806e-08
5.58239e-06
6.85551e-08
5.58259e-06
7.17014e-08
5.58247e-06
7.59253e-08
5.58214e-06
8.14305e-08
5.58181e-06
8.84183e-08
5.58178e-06
9.70455e-08
1.07522e-07
5.58249e-06
5.95088e-06
1.00662e-08
5.95439e-06
2.83272e-08
5.95863e-06
4.09666e-08
5.96259e-06
4.83154e-08
5.96632e-06
5.30147e-08
5.96981e-06
5.62976e-08
5.97288e-06
5.84553e-08
5.97551e-06
5.99518e-08
5.97771e-06
6.13065e-08
5.97952e-06
6.28601e-08
5.98096e-06
6.48354e-08
5.98209e-06
6.74273e-08
5.98297e-06
7.08203e-08
5.98371e-06
7.51838e-08
5.98448e-06
8.06682e-08
5.9855e-06
8.73998e-08
5.9871e-06
9.54414e-08
1.04889e-07
5.98973e-06
6.37786e-06
9.0201e-09
6.38097e-06
2.52149e-08
6.38495e-06
3.69876e-08
6.38887e-06
4.43899e-08
6.39264e-06
4.92492e-08
6.39621e-06
5.27234e-08
6.39947e-06
5.51998e-08
6.40235e-06
5.70692e-08
6.40488e-06
5.87751e-08
6.4071e-06
6.06409e-08
6.40906e-06
6.28809e-08
6.41082e-06
6.5669e-08
6.41248e-06
6.91589e-08
6.41418e-06
7.34798e-08
6.41612e-06
7.87289e-08
6.41855e-06
8.49658e-08
6.42182e-06
9.2177e-08
1.00379e-07
6.42633e-06
5.74167e-06
8.1833e-09
5.74405e-06
2.28391e-08
5.74722e-06
3.38125e-08
5.75051e-06
4.10989e-08
5.75373e-06
4.6028e-08
5.75684e-06
4.96166e-08
5.75975e-06
5.22905e-08
5.76242e-06
5.44035e-08
5.76485e-06
5.63403e-08
5.76709e-06
5.83978e-08
5.7692e-06
6.07766e-08
5.77124e-06
6.36298e-08
5.77331e-06
6.7083e-08
5.77556e-06
7.12306e-08
5.77816e-06
7.61288e-08
5.78134e-06
8.17898e-08
5.78536e-06
8.8153e-08
9.51892e-08
5.79055e-06
6.99905e-06
7.28737e-09
7.00156e-06
2.03273e-08
7.00501e-06
3.0366e-08
7.00873e-06
3.73807e-08
7.01247e-06
4.22898e-08
7.01615e-06
4.59369e-08
7.01968e-06
4.8755e-08
7.02302e-06
5.10611e-08
7.02619e-06
5.3177e-08
7.02922e-06
5.53631e-08
7.0322e-06
5.77978e-08
7.03522e-06
6.06077e-08
7.03842e-06
6.38855e-08
7.04196e-06
6.76882e-08
7.04606e-06
7.20313e-08
7.05096e-06
7.68851e-08
7.05697e-06
8.21526e-08
8.77761e-08
7.06438e-06
8.5318e-06
6.33697e-09
8.53443e-06
1.76897e-08
8.53815e-06
2.66482e-08
8.54233e-06
3.32021e-08
8.54666e-06
3.79569e-08
8.55103e-06
4.15679e-08
8.55535e-06
4.44376e-08
8.55957e-06
4.68437e-08
8.5637e-06
4.90438e-08
8.56781e-06
5.12514e-08
8.572e-06
5.36135e-08
8.57638e-06
5.62253e-08
8.58112e-06
5.91442e-08
8.58642e-06
6.23906e-08
8.59251e-06
6.59449e-08
8.59964e-06
6.9747e-08
8.60812e-06
7.36797e-08
7.76773e-08
8.61821e-06
1.04002e-05
5.33363e-09
1.0403e-05
1.4915e-08
1.0407e-05
2.26306e-08
1.04117e-05
2.85027e-08
1.04168e-05
3.29186e-08
1.0422e-05
3.63491e-08
1.04273e-05
3.91304e-08
1.04326e-05
4.14935e-08
1.0438e-05
4.36325e-08
1.04436e-05
4.5706e-08
1.04494e-05
4.78219e-08
1.04556e-05
5.00411e-08
1.04623e-05
5.23875e-08
1.04699e-05
5.48511e-08
1.04784e-05
5.73881e-08
1.04882e-05
5.99239e-08
1.04996e-05
6.23417e-08
6.45858e-08
1.05127e-05
1.26779e-05
4.26743e-09
1.26808e-05
1.195e-08
1.26852e-05
1.82325e-08
1.26906e-05
2.31718e-08
1.26965e-05
2.70116e-08
1.27027e-05
3.00604e-08
1.27093e-05
3.25637e-08
1.27161e-05
3.46929e-08
1.27232e-05
3.65798e-08
1.27305e-05
3.83259e-08
1.27384e-05
3.99957e-08
1.27468e-05
4.16168e-08
1.2756e-05
4.31861e-08
1.27662e-05
4.4674e-08
1.27775e-05
4.60276e-08
1.27903e-05
4.71749e-08
1.28046e-05
4.80184e-08
4.8524e-08
1.28207e-05
1.54543e-05
3.10436e-09
1.54576e-05
8.68162e-09
1.54626e-05
1.32889e-08
1.54687e-05
1.70091e-08
1.54757e-05
1.99911e-08
1.54834e-05
2.24094e-08
1.54915e-05
2.44076e-08
1.55002e-05
2.60858e-08
1.55092e-05
2.75141e-08
1.55188e-05
2.87396e-08
1.5529e-05
2.97854e-08
1.554e-05
3.06508e-08
1.55519e-05
3.13152e-08
1.55648e-05
3.17431e-08
1.55789e-05
3.18866e-08
1.55944e-05
3.16911e-08
1.56113e-05
3.10911e-08
3.00776e-08
1.56298e-05
1.8839e-05
1.77309e-09
1.88427e-05
4.90545e-09
1.88485e-05
7.50481e-09
1.88559e-05
9.67281e-09
1.88644e-05
1.14894e-08
1.88738e-05
1.30154e-08
1.88839e-05
1.42873e-08
1.88946e-05
1.53254e-08
1.8906e-05
1.61389e-08
1.8918e-05
1.67257e-08
1.89307e-05
1.70732e-08
1.89442e-05
1.71587e-08
1.89586e-05
1.69546e-08
1.89739e-05
1.64291e-08
1.89902e-05
1.5549e-08
1.90077e-05
1.42841e-08
1.90261e-05
1.26017e-08
1.05136e-08
1.90457e-05
2.2965e-05
1.37255e-10
2.29696e-05
2.51637e-10
2.29768e-05
3.5595e-10
2.29859e-05
5.81155e-10
2.29964e-05
9.40668e-10
2.30081e-05
1.37358e-09
2.30206e-05
1.79047e-09
2.30338e-05
2.12637e-09
2.30476e-05
2.33066e-09
2.30619e-05
2.35405e-09
2.30769e-05
2.15384e-09
2.30923e-05
1.68179e-09
2.31084e-05
9.10299e-10
2.3125e-05
-1.81431e-10
2.31421e-05
-1.61421e-09
2.31598e-05
-3.39908e-09
2.3178e-05
-5.54002e-09
-8.01927e-09
2.31965e-05
1.6812e-05
-1.17422e-09
1.68157e-05
-3.4417e-09
1.68214e-05
-5.29984e-09
1.68285e-05
-6.53416e-09
1.68366e-05
-7.16633e-09
1.68454e-05
-7.41766e-09
1.68547e-05
-7.4915e-09
1.68643e-05
-7.50471e-09
1.68742e-05
-7.54537e-09
1.68842e-05
-7.69931e-09
1.68944e-05
-8.03752e-09
1.69047e-05
-8.61076e-09
1.69151e-05
-9.45206e-09
1.69255e-05
-1.05831e-08
1.69359e-05
-1.20165e-08
1.69462e-05
-1.37546e-08
1.69565e-05
-1.57905e-08
-1.8106e-08
1.69666e-05
1.46358e-05
-2.43895e-09
1.46394e-05
-7.0332e-09
1.46449e-05
-1.07945e-08
1.46517e-05
-1.33053e-08
1.46592e-05
-1.46885e-08
1.46672e-05
-1.5409e-08
1.46755e-05
-1.57743e-08
1.46839e-05
-1.59293e-08
1.46924e-05
-1.60044e-08
1.47008e-05
-1.61269e-08
1.47091e-05
-1.63877e-08
1.47174e-05
-1.68421e-08
1.47255e-05
-1.75256e-08
1.47333e-05
-1.84604e-08
1.4741e-05
-1.96565e-08
1.47483e-05
-2.11128e-08
1.47554e-05
-2.28182e-08
-2.47556e-08
1.4762e-05
1.27413e-05
-3.63412e-09
1.27449e-05
-1.06342e-08
1.27505e-05
-1.63368e-08
1.2757e-05
-1.98655e-08
1.27641e-05
-2.17277e-08
1.27714e-05
-2.27486e-08
1.27789e-05
-2.32483e-08
1.27863e-05
-2.33692e-08
1.27936e-05
-2.33105e-08
1.28008e-05
-2.32509e-08
1.28077e-05
-2.32936e-08
1.28143e-05
-2.34939e-08
1.28207e-05
-2.38884e-08
1.28267e-05
-2.45005e-08
1.28324e-05
-2.53392e-08
1.28377e-05
-2.64016e-08
1.28425e-05
-2.76752e-08
-2.9144e-08
1.28469e-05
1.10919e-05
-4.64166e-09
1.10956e-05
-1.43164e-08
1.11014e-05
-2.21356e-08
1.11078e-05
-2.6294e-08
1.11145e-05
-2.83366e-08
1.11212e-05
-2.95212e-08
1.1128e-05
-3.00228e-08
1.11346e-05
-2.99731e-08
1.1141e-05
-2.96699e-08
1.11471e-05
-2.93378e-08
1.11528e-05
-2.90803e-08
1.11583e-05
-2.89515e-08
1.11634e-05
-2.89909e-08
1.11681e-05
-2.92227e-08
1.11724e-05
-2.96549e-08
1.11763e-05
-3.02836e-08
1.11797e-05
-3.10962e-08
-3.20784e-08
1.11827e-05
9.65592e-06
-5.34723e-09
9.65976e-06
-1.81567e-08
9.66582e-06
-2.81956e-08
9.67209e-06
-3.25601e-08
9.67836e-06
-3.46146e-08
9.68468e-06
-3.58382e-08
9.69083e-06
-3.61751e-08
9.69669e-06
-3.58335e-08
9.70225e-06
-3.52247e-08
9.70749e-06
-3.45815e-08
9.7124e-06
-3.39891e-08
9.71695e-06
-3.35005e-08
9.72112e-06
-3.31597e-08
9.72489e-06
-3.29921e-08
9.72824e-06
-3.30052e-08
9.73115e-06
-3.31948e-08
9.7336e-06
-3.35481e-08
-3.40508e-08
9.73557e-06
8.40557e-06
-5.56318e-09
8.41012e-06
-2.27062e-08
8.41601e-06
-3.40881e-08
8.42178e-06
-3.83287e-08
8.42777e-06
-4.06085e-08
8.4338e-06
-4.1869e-08
8.43952e-06
-4.18884e-08
8.44482e-06
-4.11392e-08
8.44976e-06
-4.01611e-08
8.45434e-06
-3.91599e-08
8.45854e-06
-3.81939e-08
8.46236e-06
-3.73155e-08
8.46577e-06
-3.65719e-08
8.46877e-06
-3.59886e-08
8.47133e-06
-3.55734e-08
8.47346e-06
-3.53238e-08
8.47514e-06
-3.52284e-08
-3.52754e-08
8.47637e-06
7.31557e-06
-3.84397e-09
7.32243e-06
-2.95662e-08
7.32801e-06
-3.96726e-08
7.3332e-06
-4.35218e-08
7.33896e-06
-4.63628e-08
7.34482e-06
-4.77299e-08
7.35026e-06
-4.733e-08
7.35519e-06
-4.60667e-08
7.35963e-06
-4.46027e-08
7.36359e-06
-4.31176e-08
7.36706e-06
-4.16666e-08
7.37005e-06
-4.0311e-08
7.37258e-06
-3.90989e-08
7.37465e-06
-3.80533e-08
7.37625e-06
-3.71809e-08
7.37741e-06
-3.64794e-08
7.37812e-06
-3.59366e-08
-3.55388e-08
7.37838e-06
6.36295e-06
3.26777e-09
6.37375e-06
-4.03592e-08
6.38087e-06
-4.67963e-08
6.3871e-06
-4.97498e-08
6.39327e-06
-5.25331e-08
6.39892e-06
-5.33852e-08
6.4037e-06
-5.2104e-08
6.40769e-06
-5.00577e-08
6.41097e-06
-4.7886e-08
6.41357e-06
-4.57109e-08
6.4155e-06
-4.3602e-08
6.41683e-06
-4.16365e-08
6.41759e-06
-3.9861e-08
6.41783e-06
-3.82918e-08
6.41758e-06
-3.69313e-08
6.41687e-06
-3.57751e-08
6.41574e-06
-3.48077e-08
-3.40023e-08
6.41421e-06
5.53416e-06
1.45727e-08
5.54719e-06
-5.33895e-08
5.55765e-06
-5.72532e-08
5.56673e-06
-5.88379e-08
5.57385e-06
-5.96465e-08
5.5786e-06
-5.8138e-08
5.58106e-06
-5.45644e-08
5.58182e-06
-5.08171e-08
5.58128e-06
-4.73469e-08
5.57969e-06
-4.41227e-08
5.57725e-06
-4.11568e-08
5.5741e-06
-3.84898e-08
5.57038e-06
-3.61356e-08
5.56617e-06
-3.40833e-08
5.56155e-06
-3.23151e-08
5.5566e-06
-3.08238e-08
5.55139e-06
-2.95957e-08
-2.85706e-08
5.54596e-06
4.85492e-06
-1.27414e-08
4.85823e-06
-5.66952e-08
4.85959e-06
-5.8614e-08
4.85767e-06
-5.69246e-08
4.85489e-06
-5.68664e-08
4.849e-06
-5.22471e-08
4.84041e-06
-4.59722e-08
4.82966e-06
-4.007e-08
4.81745e-06
-3.51279e-08
4.80437e-06
-3.10494e-08
4.79089e-06
-2.76795e-08
4.77731e-06
-2.49047e-08
4.7638e-06
-2.26292e-08
4.75049e-06
-2.07674e-08
4.73742e-06
-1.92524e-08
4.72467e-06
-1.807e-08
4.71232e-06
-1.72422e-08
-1.72477e-08
4.70099e-06
4.18993e-06
4.13324e-06
4.07463e-06
4.0177e-06
3.96083e-06
3.90859e-06
3.86262e-06
3.82255e-06
3.78742e-06
3.75637e-06
3.72869e-06
3.70378e-06
3.68115e-06
3.66039e-06
3.64113e-06
3.62306e-06
3.60582e-06
3.58857e-06
1.73827e-08
-1.73827e-08
9.93658e-08
-8.19831e-08
2.20259e-07
-1.20893e-07
3.56264e-07
-1.36005e-07
4.91992e-07
-1.35727e-07
6.1679e-07
-1.24799e-07
7.2248e-07
-1.05689e-07
8.02385e-07
-7.99047e-08
8.5082e-07
-4.84359e-08
8.63337e-07
-1.25165e-08
8.34359e-07
2.8978e-08
7.57053e-07
7.73055e-08
6.32576e-07
1.24477e-07
4.64769e-07
1.67807e-07
2.62035e-07
2.02735e-07
3.74383e-08
2.24597e-07
-1.93361e-07
2.308e-07
-4.21106e-07
2.27745e-07
-6.42871e-07
2.21765e-07
-8.62195e-07
2.19324e-07
-1.08499e-06
2.22791e-07
-1.31544e-06
2.30453e-07
-1.55506e-06
2.39621e-07
-1.80341e-06
2.48355e-07
-2.05848e-06
2.55069e-07
-2.31652e-06
2.5804e-07
-2.57221e-06
2.55686e-07
-2.81929e-06
2.47077e-07
-3.05139e-06
2.32106e-07
-3.26272e-06
2.11325e-07
-3.44836e-06
1.85648e-07
-3.60443e-06
1.56065e-07
-3.72796e-06
1.23527e-07
-3.81693e-06
8.89707e-08
-3.87029e-06
5.33619e-08
-3.88674e-06
1.64533e-08
-3.87166e-06
-1.50777e-08
-3.82651e-06
-4.51571e-08
-3.75336e-06
-7.31482e-08
-3.65412e-06
-9.92435e-08
-3.53056e-06
-1.23551e-07
-3.3845e-06
-1.4606e-07
-3.2178e-06
-1.66709e-07
-3.03238e-06
-1.8542e-07
-2.83025e-06
-2.02125e-07
-2.61348e-06
-2.16776e-07
-2.38412e-06
-2.29352e-07
-2.14426e-06
-2.39858e-07
-1.89594e-06
-2.48326e-07
-1.64113e-06
-2.54809e-07
-1.38175e-06
-2.59379e-07
-1.11963e-06
-2.62121e-07
-8.56502e-07
-2.63128e-07
-5.93984e-07
-2.62517e-07
-3.33495e-07
-2.60489e-07
-7.59197e-08
-2.57575e-07
1.78201e-07
-2.5412e-07
4.28021e-07
-2.4982e-07
6.72589e-07
-2.44568e-07
9.11157e-07
-2.38569e-07
1.14313e-06
-2.31973e-07
1.36803e-06
-2.24899e-07
1.58547e-06
-2.17445e-07
1.79517e-06
-2.09698e-07
1.99691e-06
-2.01734e-07
2.19052e-06
-1.9362e-07
2.37594e-06
-1.85416e-07
2.55312e-06
-1.77178e-07
2.72207e-06
-1.68952e-07
2.88286e-06
-1.60784e-07
3.03557e-06
-1.52713e-07
3.18034e-06
-1.44775e-07
3.31734e-06
-1.37001e-07
3.44677e-06
-1.29422e-07
3.56883e-06
-1.22063e-07
3.68378e-06
-1.14947e-07
3.79187e-06
-1.08091e-07
3.89338e-06
-1.01512e-07
3.9886e-06
-9.52194e-08
4.07782e-06
-8.92181e-08
4.16133e-06
-8.3509e-08
4.23941e-06
-7.80876e-08
4.31236e-06
-7.29448e-08
4.38043e-06
-6.80672e-08
4.44386e-06
-6.34377e-08
4.5029e-06
-5.90364e-08
4.55774e-06
-5.48421e-08
4.60857e-06
-5.0833e-08
4.65556e-06
-4.69884e-08
4.69885e-06
-4.32898e-08
4.73858e-06
-3.97221e-08
4.77485e-06
-3.62749e-08
4.80779e-06
-3.29426e-08
4.83752e-06
-2.97253e-08
4.86415e-06
-2.66278e-08
4.88781e-06
-2.36599e-08
4.90864e-06
-2.0835e-08
4.92681e-06
-1.81693e-08
4.94249e-06
-1.56812e-08
4.95588e-06
-1.33896e-08
4.96719e-06
-1.13131e-08
4.97666e-06
-9.46881e-09
4.98453e-06
-7.87149e-09
4.99107e-06
-6.53239e-09
4.99653e-06
-5.45975e-09
5.00118e-06
-4.65763e-09
5.00531e-06
-4.1265e-09
5.00917e-06
-3.86288e-09
5.01303e-06
-3.85982e-09
5.01714e-06
-4.10697e-09
5.02173e-06
-4.59114e-09
5.02703e-06
-5.29659e-09
5.03323e-06
-6.20546e-09
5.04053e-06
-7.29758e-09
5.04908e-06
-8.55078e-09
5.05902e-06
-9.9411e-09
5.07047e-06
-1.14432e-08
5.0835e-06
-1.30298e-08
5.09817e-06
-1.46732e-08
5.11451e-06
-1.63441e-08
5.13253e-06
-1.80134e-08
5.15218e-06
-1.96512e-08
5.17341e-06
-2.12283e-08
5.19612e-06
-2.2716e-08
5.22021e-06
-2.40866e-08
5.24552e-06
-2.53138e-08
5.27189e-06
-2.63729e-08
5.29914e-06
-2.72417e-08
5.32704e-06
-2.79003e-08
5.35537e-06
-2.83325e-08
5.3839e-06
-2.8527e-08
5.41237e-06
-2.84774e-08
5.44056e-06
-2.8185e-08
5.46822e-06
-2.7659e-08
5.49514e-06
-2.69183e-08
5.52113e-06
-2.59921e-08
5.54605e-06
-2.49197e-08
5.5698e-06
-2.375e-08
5.59234e-06
-2.25395e-08
5.61369e-06
-2.13498e-08
5.63393e-06
-2.02436e-08
5.65321e-06
-1.92811e-08
5.67173e-06
-1.85158e-08
5.68972e-06
-1.79917e-08
5.70746e-06
-1.77402e-08
5.72524e-06
-1.77796e-08
5.74335e-06
-1.81152e-08
5.76209e-06
-1.87396e-08
5.78173e-06
-1.96325e-08
5.80248e-06
-2.07582e-08
5.82455e-06
-2.20607e-08
5.848e-06
-2.34583e-08
5.87284e-06
-2.48392e-08
5.8989e-06
-2.60617e-08
5.92586e-06
-2.69589e-08
5.95321e-06
-2.73421e-08
5.9802e-06
-2.69967e-08
6.00585e-06
-2.56483e-08
6.02877e-06
-2.29171e-08
6.04707e-06
-1.83011e-08
6.05852e-06
-1.14495e-08
6.06169e-06
-3.16791e-09
6.05657e-06
5.11114e-09
6.04487e-06
1.17046e-08
6.02734e-06
1.75281e-08
6.00454e-06
2.28059e-08
5.97687e-06
2.76696e-08
5.94472e-06
3.21423e-08
5.90844e-06
3.62796e-08
5.86825e-06
4.01916e-08
5.82418e-06
4.40741e-08
5.77594e-06
4.8241e-08
5.72275e-06
5.31846e-08
5.66306e-06
5.96965e-08
5.5939e-06
6.91575e-08
5.50993e-06
8.39745e-08
5.40026e-06
1.09667e-07
5.24754e-06
1.52715e-07
4.99708e-06
2.50462e-07
3.57439e-07
4.63964e-06
1.93992e-07
-2.11375e-07
3.98173e-07
-2.86164e-07
5.71195e-07
-2.93915e-07
7.11028e-07
-2.75838e-07
8.18784e-07
-2.43484e-07
8.95352e-07
-2.01366e-07
9.41255e-07
-1.51592e-07
9.56548e-07
-9.51983e-08
9.40821e-07
-3.2709e-08
8.92545e-07
3.576e-08
8.11288e-07
1.10235e-07
6.99083e-07
1.89511e-07
5.51359e-07
2.722e-07
3.64444e-07
3.54722e-07
1.36365e-07
4.30814e-07
-1.3189e-07
4.92851e-07
-4.35248e-07
5.34158e-07
-7.60899e-07
5.53396e-07
-1.09735e-06
5.58214e-07
-1.43517e-06
5.57146e-07
-1.7675e-06
5.5512e-07
-2.08984e-06
5.52789e-07
-2.39877e-06
5.48552e-07
-2.69061e-06
5.402e-07
-2.96126e-06
5.25721e-07
-3.20699e-06
5.03764e-07
-3.42515e-06
4.73849e-07
-3.61438e-06
4.36303e-07
-3.77433e-06
3.92054e-07
-3.90537e-06
3.42366e-07
-4.00834e-06
2.88622e-07
-4.08443e-06
2.32152e-07
-4.13507e-06
1.74165e-07
-4.16182e-06
1.15723e-07
-4.1662e-06
5.77464e-08
-4.15051e-06
7.5679e-10
-4.111e-06
-5.45862e-08
-4.04766e-06
-1.08496e-07
-3.96037e-06
-1.60436e-07
-3.84972e-06
-2.09897e-07
-3.71678e-06
-2.56485e-07
-3.56298e-06
-2.99869e-07
-3.38992e-06
-3.39766e-07
-3.19939e-06
-3.75945e-07
-2.99329e-06
-4.08231e-07
-2.77355e-06
-4.36513e-07
-2.54216e-06
-4.60746e-07
-2.30106e-06
-4.80949e-07
-2.05219e-06
-4.97201e-07
-1.79736e-06
-5.09634e-07
-1.53832e-06
-5.18426e-07
-1.27665e-06
-5.23788e-07
-1.01382e-06
-5.25961e-07
-7.51118e-07
-5.25217e-07
-4.8973e-07
-5.21876e-07
-2.30991e-07
-5.16315e-07
2.37603e-08
-5.08871e-07
2.73673e-07
-4.99733e-07
5.18177e-07
-4.89072e-07
7.56713e-07
-4.77104e-07
9.88795e-07
-4.64055e-07
1.21402e-06
-4.50128e-07
1.43209e-06
-4.35506e-07
1.64274e-06
-4.20352e-07
1.84582e-06
-4.04812e-07
2.04121e-06
-3.89014e-07
2.22887e-06
-3.73073e-07
2.40878e-06
-3.57088e-07
2.58097e-06
-3.41145e-07
2.74551e-06
-3.2532e-07
2.90247e-06
-3.09679e-07
3.05198e-06
-2.94279e-07
3.19415e-06
-2.79174e-07
3.32914e-06
-2.64408e-07
3.4571e-06
-2.50023e-07
3.57821e-06
-2.36057e-07
3.69266e-06
-2.22542e-07
3.80065e-06
-2.09506e-07
3.9024e-06
-1.9697e-07
3.99813e-06
-1.84947e-07
4.08807e-06
-1.73445e-07
4.17244e-06
-1.62462e-07
4.25149e-06
-1.5199e-07
4.32543e-06
-1.4201e-07
4.39449e-06
-1.32499e-07
4.45889e-06
-1.2343e-07
4.51881e-06
-1.14771e-07
4.57447e-06
-1.06487e-07
4.62603e-06
-9.85468e-08
4.67366e-06
-9.09211e-08
4.71752e-06
-8.35855e-08
4.75777e-06
-7.65224e-08
4.79455e-06
-6.97222e-08
4.82801e-06
-6.31836e-08
4.85829e-06
-5.69136e-08
4.88556e-06
-5.09267e-08
4.90997e-06
-4.52441e-08
4.93169e-06
-3.98921e-08
4.95091e-06
-3.49006e-08
4.96782e-06
-3.03016e-08
4.98264e-06
-2.61266e-08
4.99557e-06
-2.24057e-08
5.00687e-06
-1.91652e-08
5.01676e-06
-1.64267e-08
5.02551e-06
-1.4206e-08
5.03336e-06
-1.25123e-08
5.04058e-06
-1.13479e-08
5.04743e-06
-1.07082e-08
5.05415e-06
-1.05814e-08
5.06099e-06
-1.09494e-08
5.06819e-06
-1.17877e-08
5.07596e-06
-1.30662e-08
5.0845e-06
-1.47495e-08
5.094e-06
-1.67973e-08
5.10462e-06
-1.91654e-08
5.11648e-06
-2.18055e-08
5.1297e-06
-2.46662e-08
5.14437e-06
-2.76938e-08
5.16053e-06
-3.08326e-08
5.17821e-06
-3.40255e-08
5.19741e-06
-3.72154e-08
5.2181e-06
-4.03449e-08
5.24023e-06
-4.33581e-08
5.26372e-06
-4.62004e-08
5.28845e-06
-4.88193e-08
5.3143e-06
-5.11656e-08
5.34112e-06
-5.31936e-08
5.36874e-06
-5.48619e-08
5.39698e-06
-5.6135e-08
5.42563e-06
-5.69848e-08
5.4545e-06
-5.7392e-08
5.48337e-06
-5.73484e-08
5.51204e-06
-5.68595e-08
5.54033e-06
-5.59461e-08
5.56806e-06
-5.46465e-08
5.59508e-06
-5.30174e-08
5.6213e-06
-5.11333e-08
5.64663e-06
-4.90852e-08
5.67107e-06
-4.6977e-08
5.69464e-06
-4.49208e-08
5.71743e-06
-4.30304e-08
5.73956e-06
-4.14154e-08
5.76122e-06
-4.01734e-08
5.78261e-06
-3.93857e-08
5.80398e-06
-3.91122e-08
5.8256e-06
-3.93899e-08
5.84771e-06
-4.02317e-08
5.8706e-06
-4.16262e-08
5.8945e-06
-4.35355e-08
5.91963e-06
-4.58911e-08
5.94616e-06
-4.85857e-08
5.97417e-06
-5.14662e-08
6.00366e-06
-5.43294e-08
6.03452e-06
-5.69239e-08
6.06652e-06
-5.89617e-08
6.09931e-06
-6.01329e-08
6.13244e-06
-6.01206e-08
6.1654e-06
-5.86123e-08
6.19781e-06
-5.53287e-08
6.22963e-06
-5.01187e-08
6.26131e-06
-4.31292e-08
6.29288e-06
-3.47344e-08
6.3231e-06
-2.51108e-08
6.34972e-06
-1.49176e-08
6.37144e-06
-4.19213e-09
6.38742e-06
6.82902e-09
6.39708e-06
1.80094e-08
6.40006e-06
2.9158e-08
6.39619e-06
4.0148e-08
6.38547e-06
5.09124e-08
6.36804e-06
6.15077e-08
6.34411e-06
7.21697e-08
6.3139e-06
8.33994e-08
6.27751e-06
9.60811e-08
6.23483e-06
1.11839e-07
6.18555e-06
1.33258e-07
6.12843e-06
1.66781e-07
6.06208e-06
2.19068e-07
5.98122e-06
3.31323e-07
4.98799e-07
5.83986e-06
2.22377e-07
-4.33752e-07
4.21424e-07
-4.8521e-07
5.66621e-07
-4.39112e-07
6.66325e-07
-3.75542e-07
7.27514e-07
-3.04673e-07
7.54616e-07
-2.28468e-07
7.50262e-07
-1.47238e-07
7.15759e-07
-6.06949e-08
6.53306e-07
2.97441e-08
5.59441e-07
1.29625e-07
4.36679e-07
2.32997e-07
2.85205e-07
3.40984e-07
1.04929e-07
4.52477e-07
-1.04496e-07
5.64147e-07
-3.43105e-07
6.69424e-07
-6.09935e-07
7.59681e-07
-9.03032e-07
8.27255e-07
-1.21855e-06
8.68915e-07
-1.54797e-06
8.87636e-07
-1.88045e-06
8.89627e-07
-2.20571e-06
8.80373e-07
-2.51581e-06
8.6289e-07
-2.80529e-06
8.38036e-07
-3.07063e-06
8.05539e-07
-3.30989e-06
7.64983e-07
-3.5225e-06
7.16368e-07
-3.70886e-06
6.60211e-07
-3.86994e-06
5.97389e-07
-4.00683e-06
5.2894e-07
-4.12039e-06
4.55926e-07
-4.21113e-06
3.79365e-07
-4.27919e-06
3.00208e-07
-4.32436e-06
2.19341e-07
-4.34623e-06
1.37591e-07
-4.3442e-06
5.57092e-08
-4.31788e-06
-2.55585e-08
-4.2668e-06
-1.0567e-07
-4.19142e-06
-1.83877e-07
-4.09245e-06
-2.59397e-07
-3.97085e-06
-3.315e-07
-3.82781e-06
-3.99526e-07
-3.66478e-06
-4.629e-07
-3.48341e-06
-5.21137e-07
-3.28551e-06
-5.73847e-07
-3.07299e-06
-6.20747e-07
-2.84784e-06
-6.61664e-07
-2.61205e-06
-6.96536e-07
-2.36759e-06
-7.25408e-07
-2.11637e-06
-7.48422e-07
-1.8602e-06
-7.65807e-07
-1.60076e-06
-7.77861e-07
-1.33962e-06
-7.84934e-07
-1.07816e-06
-7.87417e-07
-8.17648e-07
-7.85731e-07
-5.59213e-07
-7.80311e-07
-3.03932e-07
-7.71596e-07
-5.28264e-08
-7.59977e-07
1.93244e-07
-7.45803e-07
4.33616e-07
-7.29445e-07
6.67754e-07
-7.11242e-07
8.95205e-07
-6.91506e-07
1.1156e-06
-6.70525e-07
1.32866e-06
-6.48564e-07
1.53417e-06
-6.25863e-07
1.732e-06
-6.02638e-07
1.92207e-06
-5.79085e-07
2.10437e-06
-5.55373e-07
2.27893e-06
-5.31654e-07
2.44585e-06
-5.08057e-07
2.60522e-06
-4.84693e-07
2.75719e-06
-4.61654e-07
2.90193e-06
-4.39019e-07
3.03961e-06
-4.16852e-07
3.17041e-06
-3.95207e-07
3.29452e-06
-3.74129e-07
3.41212e-06
-3.53657e-07
3.5234e-06
-3.33823e-07
3.62855e-06
-3.14655e-07
3.72775e-06
-2.96177e-07
3.82121e-06
-2.78403e-07
3.90911e-06
-2.61344e-07
3.99165e-06
-2.45001e-07
4.06902e-06
-2.29366e-07
4.14144e-06
-2.14423e-07
4.20909e-06
-2.00149e-07
4.27217e-06
-1.86513e-07
4.33088e-06
-1.73479e-07
4.3854e-06
-1.61009e-07
4.43592e-06
-1.49067e-07
4.48261e-06
-1.37617e-07
4.52566e-06
-1.2663e-07
4.56522e-06
-1.16084e-07
4.60146e-06
-1.05967e-07
4.63456e-06
-9.62759e-08
4.66466e-06
-8.70189e-08
4.69195e-06
-7.82127e-08
4.71659e-06
-6.98826e-08
4.73876e-06
-6.20606e-08
4.75864e-06
-5.47838e-08
4.77643e-06
-4.80918e-08
4.79233e-06
-4.20245e-08
4.80654e-06
-3.662e-08
4.81929e-06
-3.19121e-08
4.83079e-06
-2.79289e-08
4.84127e-06
-2.46908e-08
4.85097e-06
-2.22096e-08
4.86011e-06
-2.04878e-08
4.86892e-06
-1.95182e-08
4.87762e-06
-1.92838e-08
4.88643e-06
-1.97581e-08
4.89555e-06
-2.09054e-08
4.90517e-06
-2.26818e-08
4.91545e-06
-2.50355e-08
4.92656e-06
-2.79076e-08
4.93863e-06
-3.12331e-08
4.95177e-06
-3.4942e-08
4.96606e-06
-3.896e-08
4.98158e-06
-4.32095e-08
4.99835e-06
-4.76109e-08
5.01641e-06
-5.20831e-08
5.03574e-06
-5.65451e-08
5.05631e-06
-6.09164e-08
5.07807e-06
-6.51186e-08
5.10095e-06
-6.9075e-08
5.12484e-06
-7.27134e-08
5.14964e-06
-7.5965e-08
5.17522e-06
-7.87671e-08
5.20142e-06
-8.10638e-08
5.22809e-06
-8.28078e-08
5.25507e-06
-8.39626e-08
5.28218e-06
-8.45053e-08
5.30926e-06
-8.4429e-08
5.33615e-06
-8.37465e-08
5.36269e-06
-8.2492e-08
5.38877e-06
-8.0724e-08
5.41428e-06
-7.8525e-08
5.43915e-06
-7.60022e-08
5.46335e-06
-7.32832e-08
5.48688e-06
-7.05124e-08
5.50981e-06
-6.78439e-08
5.53221e-06
-6.54334e-08
5.55422e-06
-6.34296e-08
5.57602e-06
-6.19662e-08
5.59778e-06
-6.11538e-08
5.61975e-06
-6.10749e-08
5.64214e-06
-6.17804e-08
5.66519e-06
-6.32872e-08
5.68914e-06
-6.5576e-08
5.7142e-06
-6.85885e-08
5.74052e-06
-7.22202e-08
5.76825e-06
-7.63125e-08
5.79743e-06
-8.06459e-08
5.82804e-06
-8.49374e-08
5.85996e-06
-8.88482e-08
5.893e-06
-9.20008e-08
5.92687e-06
-9.40047e-08
5.96124e-06
-9.44853e-08
5.99574e-06
-9.31166e-08
6.03008e-06
-8.96614e-08
6.06399e-06
-8.40348e-08
6.09721e-06
-7.63495e-08
6.12924e-06
-6.67622e-08
6.15946e-06
-5.53289e-08
6.18692e-06
-4.23827e-08
6.21085e-06
-2.81189e-08
6.23044e-06
-1.27649e-08
6.245e-06
3.449e-09
6.25395e-06
2.02096e-08
6.25685e-06
3.72492e-08
6.2534e-06
5.43648e-08
6.24341e-06
7.14923e-08
6.2268e-06
8.87865e-08
6.20347e-06
1.0673e-07
6.17327e-06
1.26276e-07
6.1359e-06
1.49207e-07
6.09075e-06
1.7841e-07
6.03731e-06
2.2022e-07
5.97376e-06
2.82617e-07
5.90963e-06
3.95457e-07
5.69077e-07
5.83935e-06
1.67224e-07
-6.00976e-07
2.71948e-07
-5.89934e-07
3.35013e-07
-5.02178e-07
3.66083e-07
-4.06612e-07
3.69942e-07
-3.08532e-07
3.487e-07
-2.07226e-07
3.02622e-07
-1.01161e-07
2.31733e-07
1.01941e-08
1.31942e-07
1.29535e-07
6.20196e-09
2.55365e-07
-1.47805e-07
3.87004e-07
-3.29491e-07
5.22671e-07
-5.36863e-07
6.59849e-07
-7.66901e-07
7.94185e-07
-1.0161e-06
9.18619e-07
-1.28073e-06
1.02432e-06
-1.55718e-06
1.1037e-06
-1.84171e-06
1.15344e-06
-2.12956e-06
1.17549e-06
-2.41489e-06
1.17496e-06
-2.69173e-06
1.15721e-06
-2.95496e-06
1.12612e-06
-3.20085e-06
1.08393e-06
-3.42719e-06
1.03187e-06
-3.633e-06
9.70794e-07
-3.8181e-06
9.01476e-07
-3.98263e-06
8.24738e-07
-4.12664e-06
7.41399e-07
-4.24996e-06
6.52255e-07
-4.35211e-06
5.58082e-07
-4.43242e-06
4.59669e-07
-4.49004e-06
3.57837e-07
-4.52416e-06
2.53461e-07
-4.53405e-06
1.47475e-07
-4.51918e-06
4.08441e-08
-4.47929e-06
-6.54543e-08
-4.41453e-06
-1.70425e-07
-4.32543e-06
-2.72982e-07
-4.21277e-06
-3.72054e-07
-4.07764e-06
-4.66628e-07
-3.9214e-06
-5.55771e-07
-3.74564e-06
-6.38658e-07
-3.55218e-06
-7.14595e-07
-3.34299e-06
-7.83032e-07
-3.12016e-06
-8.43581e-07
-2.8858e-06
-8.96021e-07
-2.64204e-06
-9.40297e-07
-2.39094e-06
-9.7651e-07
-2.13446e-06
-1.0049e-06
-1.87442e-06
-1.02584e-06
-1.61251e-06
-1.03977e-06
-1.35022e-06
-1.04722e-06
-1.08889e-06
-1.04875e-06
-8.29684e-07
-1.04494e-06
-5.73627e-07
-1.03637e-06
-3.21619e-07
-1.02361e-06
-7.4431e-08
-1.00716e-06
1.67261e-07
-9.87495e-07
4.02875e-07
-9.65058e-07
6.31933e-07
-9.403e-07
8.54046e-07
-9.13619e-07
1.0689e-06
-8.8538e-07
1.27626e-06
-8.55918e-07
1.47593e-06
-8.25539e-07
1.66781e-06
-7.94518e-07
1.85183e-06
-7.63108e-07
2.028e-06
-7.31534e-07
2.19634e-06
-6.99999e-07
2.35696e-06
-6.68678e-07
2.51e-06
-6.37725e-07
2.65561e-06
-6.07269e-07
2.794e-06
-5.77413e-07
2.92539e-06
-5.48244e-07
3.05001e-06
-5.19826e-07
3.16809e-06
-4.92207e-07
3.27986e-06
-4.65424e-07
3.38554e-06
-4.39502e-07
3.48534e-06
-4.14459e-07
3.57947e-06
-3.90308e-07
3.66813e-06
-3.67056e-07
3.75149e-06
-3.44707e-07
3.82974e-06
-3.23256e-07
3.90307e-06
-3.02695e-07
3.97166e-06
-2.83009e-07
4.03568e-06
-2.64172e-07
4.09533e-06
-2.46158e-07
4.15078e-06
-2.28929e-07
4.20222e-06
-2.12449e-07
4.24983e-06
-1.9668e-07
4.2938e-06
-1.81585e-07
4.3343e-06
-1.67134e-07
4.37152e-06
-1.53303e-07
4.40564e-06
-1.40079e-07
4.43682e-06
-1.27457e-07
4.46524e-06
-1.15446e-07
4.49109e-06
-1.04063e-07
4.51455e-06
-9.33337e-08
4.53578e-06
-8.32941e-08
4.55498e-06
-7.39842e-08
4.57233e-06
-6.54471e-08
4.58804e-06
-5.77272e-08
4.60228e-06
-5.08661e-08
4.61527e-06
-4.49014e-08
4.62721e-06
-3.98635e-08
4.63829e-06
-3.57739e-08
4.64872e-06
-3.26444e-08
4.65871e-06
-3.0475e-08
4.66845e-06
-2.92543e-08
4.67812e-06
-2.89583e-08
4.68792e-06
-2.95519e-08
4.698e-06
-3.09881e-08
4.70853e-06
-3.32095e-08
4.71964e-06
-3.61493e-08
4.73146e-06
-3.97318e-08
4.74411e-06
-4.3874e-08
4.75765e-06
-4.8487e-08
4.77217e-06
-5.34769e-08
4.7877e-06
-5.87463e-08
4.80429e-06
-6.41954e-08
4.82193e-06
-6.97236e-08
4.84061e-06
-7.52303e-08
4.86031e-06
-8.06161e-08
4.88098e-06
-8.57841e-08
4.90254e-06
-9.06403e-08
4.92493e-06
-9.50956e-08
4.94803e-06
-9.90664e-08