/*--------------------------------*- C++ -*----------------------------------*\
  =========                 |
  \\      /  F ield         | OpenFOAM: The Open Source CFD Toolbox
   \\    /   O peration     | Website:  https://openfoam.org
    \\  /    A nd           | Version:  9
     \\/     M anipulation  |
\*---------------------------------------------------------------------------*/
FoamFile
{
    format      ascii;
    class       volVectorField;
    location    "0.21";
    object      U;
}
// * * * * * * * * * * * * * * * * * * * * * * * * * * * * * * * * * * * * * //

dimensions      [0 1 -1 0 0 0 0];

internalField   nonuniform List<vector> 
12225
(
(9.86613 -0.853701 0)
(9.67986 -0.667449 0)
(9.46308 -0.35988 0)
(9.22399 -0.169072 0)
(8.99771 -0.0724606 0)
(8.79993 -0.0256053 0)
(8.63011 -0.00289861 0)
(8.48434 0.00826922 0)
(8.35872 0.0139014 0)
(8.24933 0.0168037 0)
(8.15236 0.0183852 0)
(8.06448 0.0194102 0)
(7.9828 0.0203121 0)
(7.90476 0.0213747 0)
(7.82754 0.0228109 0)
(7.74908 0.0249685 0)
(7.66205 0.0281107 0)
(7.57889 0.0353038 0)
(10.0513 0.271387 0)
(10.115 0.364731 0)
(10.1128 0.271302 0)
(10.078 0.183456 0)
(10.0366 0.128114 0)
(9.98933 0.0951736 0)
(9.93371 0.0750721 0)
(9.87117 0.0623111 0)
(9.80492 0.0538136 0)
(9.73745 0.0478801 0)
(9.67011 0.04369 0)
(9.60353 0.0408848 0)
(9.53787 0.0393124 0)
(9.47303 0.0389802 0)
(9.4083 0.0399433 0)
(9.34362 0.0428701 0)
(9.27504 0.0469907 0)
(9.2095 0.058903 0)
(9.99771 0.0392473 0)
(10.0212 0.0242644 0)
(10.051 0.00851591 0)
(10.068 0.0199936 0)
(10.074 0.037568 0)
(10.0729 0.0480431 0)
(10.0648 0.0525652 0)
(10.0501 0.0542634 0)
(10.0304 0.0548029 0)
(10.0069 0.0549483 0)
(9.98022 0.0551446 0)
(9.95087 0.0557121 0)
(9.91903 0.0569061 0)
(9.88473 0.0590223 0)
(9.84768 0.062358 0)
(9.80761 0.0677313 0)
(9.76334 0.0752544 0)
(9.71479 0.089336 0)
(9.99672 0.00520403 0)
(10.0078 0.0261839 0)
(10.033 0.0418547 0)
(10.0504 0.0531534 0)
(10.0604 0.059663 0)
(10.0673 0.0617263 0)
(10.0711 0.0618257 0)
(10.0711 0.0616308 0)
(10.0677 0.0616198 0)
(10.0617 0.0619016 0)
(10.0531 0.0626025 0)
(10.0421 0.0639126 0)
(10.0287 0.0660698 0)
(10.0127 0.0694035 0)
(9.9939 0.0743193 0)
(9.97199 0.0816329 0)
(9.94658 0.0919899 0)
(9.9167 0.108081 0)
(9.99928 0.0071911 0)
(10.0079 0.0352024 0)
(10.0261 0.0478375 0)
(10.0395 0.0525771 0)
(10.0486 0.0560599 0)
(10.0566 0.0583177 0)
(10.0631 0.0595075 0)
(10.0671 0.0603617 0)
(10.0687 0.0612849 0)
(10.0683 0.0624571 0)
(10.066 0.0640632 0)
(10.0618 0.0663443 0)
(10.0556 0.0695904 0)
(10.0473 0.0741781 0)
(10.0367 0.0805904 0)
(10.0237 0.0896102 0)
(10.0081 0.102092 0)
(9.98942 0.119898 0)
(10.0002 0.00950541 0)
(10.0075 0.0331814 0)
(10.0215 0.0433239 0)
(10.0329 0.0475642 0)
(10.0412 0.0517983 0)
(10.0489 0.0552095 0)
(10.0556 0.0573482 0)
(10.0605 0.0589258 0)
(10.0636 0.0605057 0)
(10.0651 0.06235 0)
(10.0652 0.0646741 0)
(10.0637 0.0677432 0)
(10.0606 0.071876 0)
(10.0557 0.0774733 0)
(10.0492 0.0850507 0)
(10.0407 0.0953488 0)
(10.0306 0.109249 0)
(10.0187 0.128252 0)
(10.0003 0.00915492 0)
(10.0064 0.0285486 0)
(10.0179 0.0387811 0)
(10.0282 0.0441614 0)
(10.0361 0.0489466 0)
(10.0431 0.0527498 0)
(10.0495 0.055316 0)
(10.0545 0.0573426 0)
(10.0581 0.0594048 0)
(10.0604 0.0617791 0)
(10.0615 0.064689 0)
(10.0613 0.0684102 0)
(10.0599 0.0732749 0)
(10.0571 0.0796907 0)
(10.053 0.0881699 0)
(10.0476 0.0993923 0)
(10.0412 0.114166 0)
(10.0343 0.133696 0)
(10.0003 0.00823638 0)
(10.0054 0.0249212 0)
(10.015 0.035417 0)
(10.0244 0.0414672 0)
(10.0319 0.0463183 0)
(10.0385 0.0502314 0)
(10.0444 0.0531251 0)
(10.0494 0.0555533 0)
(10.0532 0.0580371 0)
(10.0559 0.0608651 0)
(10.0576 0.0642729 0)
(10.0583 0.0685414 0)
(10.058 0.0740037 0)
(10.0567 0.0810565 0)
(10.0545 0.0901807 0)
(10.0517 0.101973 0)
(10.0484 0.117111 0)
(10.0454 0.13652 0)
(10.0003 0.00742418 0)
(10.0046 0.0221256 0)
(10.0127 0.0323788 0)
(10.0211 0.0386948 0)
(10.0282 0.0435638 0)
(10.0344 0.0475985 0)
(10.0401 0.0508079 0)
(10.045 0.0536051 0)
(10.0489 0.0564587 0)
(10.0519 0.0596739 0)
(10.0541 0.0634971 0)
(10.0556 0.0682057 0)
(10.0563 0.0741212 0)
(10.0563 0.0816127 0)
(10.0559 0.0911078 0)
(10.0552 0.103104 0)
(10.0548 0.118122 0)
(10.0552 0.136838 0)
(10.0003 0.00670558 0)
(10.0039 0.0197141 0)
(10.0107 0.0294241 0)
(10.0182 0.0358442 0)
(10.0249 0.0407705 0)
(10.0308 0.0449191 0)
(10.0363 0.0483853 0)
(10.0412 0.0514917 0)
(10.0452 0.0546563 0)
(10.0486 0.0581887 0)
(10.0513 0.0623378 0)
(10.0535 0.0673683 0)
(10.0551 0.073577 0)
(10.0565 0.0812922 0)
(10.0577 0.0908732 0)
(10.0591 0.102708 0)
(10.0612 0.117164 0)
(10.0645 0.134698 0)
(10.0003 0.00603071 0)
(10.0033 0.0175614 0)
(10.0091 0.0266195 0)
(10.0157 0.0330195 0)
(10.022 0.0379777 0)
(10.0277 0.0421895 0)
(10.033 0.0458335 0)
(10.0379 0.0491789 0)
(10.0421 0.0525876 0)
(10.0459 0.0563577 0)
(10.0491 0.0607308 0)
(10.052 0.0659501 0)
(10.0546 0.0722777 0)
(10.0572 0.07999 0)
(10.06 0.0893699 0)
(10.0634 0.100697 0)
(10.0677 0.114195 0)
(10.0736 0.130145 0)
(10.0003 0.00543392 0)
(10.0029 0.0157697 0)
(10.0078 0.024195 0)
(10.0138 0.0304631 0)
(10.0197 0.0353946 0)
(10.0252 0.0396149 0)
(10.0304 0.0433538 0)
(10.0353 0.0468484 0)
(10.0398 0.0504098 0)
(10.0438 0.0543137 0)
(10.0476 0.058787 0)
(10.0512 0.0640465 0)
(10.0547 0.0703154 0)
(10.0584 0.0778162 0)
(10.0626 0.0867596 0)
(10.0675 0.0973309 0)
(10.0737 0.109643 0)
(10.0816 0.123851 0)
(10.0003 0.00487894 0)
(10.0025 0.0141483 0)
(10.0068 0.0219141 0)
(10.0122 0.0279467 0)
(10.0178 0.0327944 0)
(10.0231 0.0369801 0)
(10.0282 0.0407527 0)
(10.0332 0.0443277 0)
(10.0378 0.0479694 0)
(10.0422 0.0519237 0)
(10.0465 0.0563954 0)
(10.0508 0.0615713 0)
(10.0552 0.067632 0)
(10.0599 0.0747455 0)
(10.0653 0.0830541 0)
(10.0716 0.0926611 0)
(10.0793 0.10359 0)
(10.0888 0.1159 0)
(10.0002 0.00429787 0)
(10.0022 0.0124565 0)
(10.0059 0.0194549 0)
(10.0108 0.0251153 0)
(10.0159 0.0297813 0)
(10.0211 0.0338563 0)
(10.0262 0.0375827 0)
(10.0312 0.0411537 0)
(10.0361 0.0447848 0)
(10.0409 0.0486814 0)
(10.0457 0.0530161 0)
(10.0507 0.0579369 0)
(10.056 0.0635744 0)
(10.0618 0.070036 0)
(10.0684 0.0773941 0)
(10.0761 0.0856745 0)
(10.0852 0.0948228 0)
(10.096 0.104825 0)
(10.0002 0.00368531 0)
(10.0019 0.0106808 0)
(10.0052 0.0168049 0)
(10.0095 0.0219405 0)
(10.0143 0.0262896 0)
(10.0193 0.0301396 0)
(10.0244 0.0337013 0)
(10.0295 0.0371392 0)
(10.0347 0.0406184 0)
(10.0399 0.0442954 0)
(10.0453 0.0482998 0)
(10.0511 0.0527333 0)
(10.0572 0.057672 0)
(10.0641 0.0631621 0)
(10.0717 0.0692107 0)
(10.0805 0.0757791 0)
(10.0906 0.0827569 0)
(10.1023 0.0900829 0)
(10.0002 0.00303455 0)
(10.0017 0.00879865 0)
(10.0045 0.0139292 0)
(10.0085 0.0183648 0)
(10.013 0.0222209 0)
(10.0179 0.0256851 0)
(10.023 0.0289167 0)
(10.0282 0.0320408 0)
(10.0337 0.0351714 0)
(10.0394 0.0384107 0)
(10.0454 0.0418378 0)
(10.0517 0.0455041 0)
(10.0587 0.0494321 0)
(10.0663 0.0536136 0)
(10.0747 0.0580038 0)
(10.0842 0.0625201 0)
(10.0948 0.0670239 0)
(10.1068 0.0714329 0)
(10.0002 0.00233063 0)
(10.0015 0.00675807 0)
(10.0041 0.0107462 0)
(10.0078 0.0142807 0)
(10.0121 0.0174284 0)
(10.0169 0.0202974 0)
(10.0221 0.0229864 0)
(10.0275 0.0255715 0)
(10.0332 0.0281143 0)
(10.0392 0.0306624 0)
(10.0456 0.0332434 0)
(10.0524 0.0358604 0)
(10.0598 0.0384916 0)
(10.0678 0.0410885 0)
(10.0765 0.0435755 0)
(10.0861 0.0458511 0)
(10.0965 0.0477778 0)
(10.108 0.049274 0)
(10.0002 0.00154004 0)
(10.0014 0.00445652 0)
(10.0039 0.0071022 0)
(10.0075 0.00950042 0)
(10.0117 0.0116901 0)
(10.0165 0.0137177 0)
(10.0217 0.0156201 0)
(10.0273 0.0174203 0)
(10.0331 0.0191288 0)
(10.0394 0.020743 0)
(10.0459 0.0222447 0)
(10.0528 0.0235979 0)
(10.0602 0.0247498 0)
(10.0681 0.0256309 0)
(10.0765 0.0261563 0)
(10.0854 0.0262284 0)
(10.0949 0.0257331 0)
(10.1051 0.0246014 0)
(10.0002 0.000603251 0)
(10.0014 0.00172136 0)
(10.004 0.00273993 0)
(10.0075 0.00372122 0)
(10.0119 0.00469024 0)
(10.0168 0.00563768 0)
(10.0221 0.00653802 0)
(10.0277 0.00736179 0)
(10.0336 0.00807495 0)
(10.0397 0.00863503 0)
(10.0461 0.00899046 0)
(10.0527 0.00908229 0)
(10.0595 0.0088442 0)
(10.0666 0.00820347 0)
(10.074 0.0070834 0)
(10.0816 0.00540578 0)
(10.0894 0.00309031 0)
(10.0974 8.3197e-05 0)
(10.0002 -0.000329792 0)
(10.0016 -0.00100807 0)
(10.0043 -0.0016088 0)
(10.0082 -0.00201425 0)
(10.0128 -0.00220721 0)
(10.0179 -0.00225433 0)
(10.0233 -0.00223846 0)
(10.0289 -0.00222928 0)
(10.0347 -0.00229296 0)
(10.0407 -0.00249988 0)
(10.0467 -0.00292129 0)
(10.0528 -0.00362572 0)
(10.0589 -0.00467996 0)
(10.0651 -0.00614953 0)
(10.0713 -0.0080974 0)
(10.0775 -0.0105821 0)
(10.0836 -0.013657 0)
(10.0897 -0.0173613 0)
(10.0002 -0.00114842 0)
(10.0017 -0.00341473 0)
(10.0048 -0.00542127 0)
(10.0091 -0.0069448 0)
(10.0141 -0.00799914 0)
(10.0195 -0.00874678 0)
(10.025 -0.00932274 0)
(10.0308 -0.00981383 0)
(10.0365 -0.0103072 0)
(10.0423 -0.0108986 0)
(10.0481 -0.0116754 0)
(10.0537 -0.012712 0)
(10.0593 -0.0140732 0)
(10.0648 -0.0158178 0)
(10.0701 -0.0179993 0)
(10.0752 -0.0206642 0)
(10.0801 -0.023851 0)
(10.0848 -0.0275903 0)
(10.0002 -0.00192528 0)
(10.0019 -0.00577896 0)
(10.0055 -0.00919234 0)
(10.0103 -0.0117013 0)
(10.0159 -0.0134068 0)
(10.0216 -0.0146547 0)
(10.0274 -0.0156412 0)
(10.0333 -0.0164535 0)
(10.0391 -0.0171928 0)
(10.0448 -0.0179759 0)
(10.0503 -0.0189008 0)
(10.0556 -0.020043 0)
(10.0607 -0.0214655 0)
(10.0656 -0.0232233 0)
(10.0702 -0.0253625 0)
(10.0745 -0.0279208 0)
(10.0785 -0.0309259 0)
(10.0822 -0.034402 0)
(10.0002 -0.00264127 0)
(10.0021 -0.00813235 0)
(10.0062 -0.0129747 0)
(10.012 -0.0163632 0)
(10.0182 -0.0185949 0)
(10.0242 -0.0201989 0)
(10.0303 -0.021404 0)
(10.0364 -0.0223341 0)
(10.0422 -0.0231429 0)
(10.0479 -0.0239667 0)
(10.0532 -0.0248962 0)
(10.0583 -0.025998 0)
(10.0631 -0.0273312 0)
(10.0675 -0.028947 0)
(10.0716 -0.0308861 0)
(10.0753 -0.0331789 0)
(10.0786 -0.0358464 0)
(10.0815 -0.0389074 0)
(10.0001 -0.00328661 0)
(10.0021 -0.010705 0)
(10.0071 -0.0167091 0)
(10.0139 -0.0205818 0)
(10.0207 -0.0233099 0)
(10.0273 -0.025374 0)
(10.0337 -0.0267774 0)
(10.0399 -0.027693 0)
(10.0459 -0.0284161 0)
(10.0515 -0.0291404 0)
(10.0567 -0.0299513 0)
(10.0616 -0.0309033 0)
(10.0661 -0.0320494 0)
(10.0703 -0.0334349 0)
(10.074 -0.0350934 0)
(10.0772 -0.0370488 0)
(10.08 -0.0393156 0)
(10.0823 -0.0419068 0)
(10 -0.00358823 0)
(10.0021 -0.0144339 0)
(10.0082 -0.0213927 0)
(10.0159 -0.0245909 0)
(10.0232 -0.0271343 0)
(10.0302 -0.0295664 0)
(10.0372 -0.0313093 0)
(10.0438 -0.0323673 0)
(10.05 -0.0330997 0)
(10.0556 -0.0337505 0)
(10.0608 -0.0344238 0)
(10.0656 -0.0351858 0)
(10.0699 -0.0360957 0)
(10.0737 -0.0371997 0)
(10.0771 -0.0385286 0)
(10.0799 -0.040103 0)
(10.0821 -0.0419341 0)
(10.0839 -0.044032 0)
(9.99919 -0.00177435 0)
(10.0007 -0.0182534 0)
(10.0093 -0.0284934 0)
(10.0185 -0.0312743 0)
(10.0261 -0.0323477 0)
(10.0335 -0.0336407 0)
(10.0412 -0.0347786 0)
(10.0485 -0.0356223 0)
(10.055 -0.036305 0)
(10.0607 -0.0369111 0)
(10.0658 -0.0374885 0)
(10.0702 -0.0380977 0)
(10.074 -0.0388002 0)
(10.0771 -0.0396423 0)
(10.0796 -0.0406556 0)
(10.0815 -0.0418624 0)
(10.0828 -0.0432725 0)
(10.0835 -0.0448944 0)
(9.99573 0.00428295 0)
(9.99442 -0.0128911 0)
(10.0084 -0.0312429 0)
(10.0226 -0.0420171 0)
(10.0326 -0.0462327 0)
(10.041 -0.0466322 0)
(10.0491 -0.0455318 0)
(10.0562 -0.0443454 0)
(10.0619 -0.0434768 0)
(10.0665 -0.0428739 0)
(10.07 -0.042465 0)
(10.0726 -0.0422404 0)
(10.0742 -0.0422093 0)
(10.075 -0.0423779 0)
(10.075 -0.0427509 0)
(10.0742 -0.0433338 0)
(10.0728 -0.0441213 0)
(10.0707 -0.0450927 0)
(9.99016 -0.0107068 0)
(9.98929 0.0102643 0)
(10.009 0.0250338 0)
(10.0304 0.0156873 0)
(10.046 -0.00357882 0)
(10.0564 -0.0184428 0)
(10.0628 -0.0271403 0)
(10.0656 -0.0321012 0)
(10.0657 -0.0350284 0)
(10.0636 -0.0367251 0)
(10.0599 -0.0376726 0)
(10.0548 -0.0382117 0)
(10.0486 -0.0385645 0)
(10.0414 -0.0388663 0)
(10.0334 -0.0392049 0)
(10.0248 -0.0396445 0)
(10.0156 -0.0402417 0)
(10.0059 -0.0409711 0)
(10.0205 -0.212081 0)
(10.0629 -0.315031 0)
(10.0737 -0.252304 0)
(10.0669 -0.178948 0)
(10.0594 -0.130024 0)
(10.0508 -0.0989289 0)
(10.0368 -0.0783865 0)
(10.0167 -0.0646452 0)
(9.99247 -0.0552861 0)
(9.96595 -0.0486511 0)
(9.93828 -0.0437544 0)
(9.91016 -0.0400453 0)
(9.88203 -0.0371925 0)
(9.85419 -0.0349834 0)
(9.82685 -0.0332852 0)
(9.80007 -0.0320447 0)
(9.77407 -0.031237 0)
(9.74881 -0.0311835 0)
(9.94651 0.656334 0)
(9.88784 0.541655 0)
(9.78181 0.315508 0)
(9.63798 0.165884 0)
(9.49144 0.0832725 0)
(9.35922 0.0395427 0)
(9.24308 0.0163659 0)
(9.14126 0.00377365 0)
(9.05199 -0.00328656 0)
(8.97351 -0.0073397 0)
(8.90395 -0.00971583 0)
(8.84166 -0.011156 0)
(8.78532 -0.0120761 0)
(8.73386 -0.0127115 0)
(8.68639 -0.013203 0)
(8.64215 -0.0136615 0)
(8.60027 -0.0141744 0)
(8.56031 -0.0150801 0)
(-0.0125044 0.0668513 -4.25437e-20)
(0.0425946 -0.027858 4.01407e-20)
(0.137085 -0.108485 0)
(0.255718 -0.15394 0)
(0.378213 -0.173512 0)
(0.494289 -0.175082 -3.44547e-20)
(0.597288 -0.16311 0)
(0.681009 -0.140411 0)
(0.739801 -0.108918 0)
(0.769147 -0.0697193 0)
(0.7652 -0.0235686 3.17281e-20)
(0.719492 0.027301 0)
(0.63082 0.0792092 0)
(0.500794 0.127527 0)
(0.334917 0.166886 0)
(0.142329 0.192528 3.23041e-20)
(-0.0649941 0.200534 0)
(-0.273161 0.194019 0)
(-0.475421 0.181756 0)
(-0.673245 0.173943 0)
(-0.871241 0.174218 0)
(-1.07437 0.179801 0)
(-1.28535 0.18752 0)
(-1.50467 0.196813 2.28591e-20)
(-1.73138 0.207545 -2.21242e-20)
(-1.96303 0.217707 2.1446e-20)
(-2.19555 0.223896 2.08092e-20)
(-2.42358 0.223167 0)
(-2.64125 0.214221 0)
(-2.84293 0.197354 -1.90182e-20)
(-3.0237 0.173796 -1.84091e-20)
(-3.17956 0.145117 0)
(-3.30751 0.112948 0)
(-3.40539 0.0789959 -1.6295e-20)
(-3.47152 0.0449995 0)
(-3.50496 0.0124268 0)
(-3.50535 -0.0175626 1.33644e-20)
(-3.47949 -0.0440332 0)
(-3.42754 -0.068096 1.07376e-20)
(-3.35117 -0.0902837 1.84631e-20)
(-3.25193 -0.110789 0)
(-3.1314 -0.129659 0)
(-2.99121 -0.146879 0)
(-2.83303 -0.162414 0)
(-2.65864 -0.176228 0)
(-2.46985 -0.188297 -4.85912e-21)
(-2.26851 -0.198609 -9.544e-21)
(-2.05649 -0.207165 -1.44291e-20)
(-1.83565 -0.213976 0)
(-1.6078 -0.219055 2.47593e-20)
(-1.37471 -0.222412 0)
(-1.13808 -0.224044 -3.57783e-20)
(-0.899523 -0.223926 -4.15291e-20)
(-0.660551 -0.222009 0)
(-0.422509 -0.218239 0)
(-0.186411 -0.212632 0)
(0.0471237 -0.205603 -6.0195e-20)
(0.277586 -0.197847 0)
(0.504089 -0.189721 0)
(0.725747 -0.18139 0)
(0.941929 -0.17296 0)
(1.15213 -0.164512 0)
(1.35595 -0.156111 0)
(1.55307 -0.147811 0)
(1.74325 -0.139658 0)
(1.92631 -0.13169 5.8262e-20)
(2.10212 -0.123938 0)
(2.27062 -0.116428 0)
(2.43178 -0.109179 -5.59561e-20)
(2.58564 -0.102207 -5.51446e-20)
(2.73223 -0.0955249 0)
(2.87167 -0.0891408 5.35064e-20)
(3.00406 -0.0830604 -5.26914e-20)
(3.12958 -0.0772872 0)
(3.24839 -0.0718226 5.10919e-20)
(3.36069 -0.066666 0)
(3.46672 -0.0618149 0)
(3.5667 -0.057265 -4.88111e-20)
(3.66088 -0.0530095 0)
(3.74953 -0.0490397 4.73891e-20)
(3.83291 -0.0453442 0)
(3.91126 -0.0419092 -4.60528e-20)
(3.98486 -0.038719 -4.54173e-20)
(4.05394 -0.0357554 -4.48034e-20)
(4.11873 -0.0329993 -8.8422e-20)
(4.17945 -0.0304303 8.72795e-20)
(4.23629 -0.0280281 0)
(4.28942 -0.0257729 0)
(4.339 -0.0236466 0)
(4.38518 -0.0216331 8.31194e-20)
(4.42805 -0.0197191 8.21782e-20)
(4.46775 -0.0178948 -8.12748e-20)
(4.50437 -0.0161538 0)
(4.538 -0.0144933 7.95787e-20)
(4.56876 -0.0129141 7.8784e-20)
(4.59675 -0.0114195 7.80235e-20)
(4.62208 -0.0100151 0)
(4.64491 -0.00870792 0)
(4.66537 -0.00750578 0)
(4.68364 -0.00641652 7.52919e-20)
(4.69991 -0.00544735 0)
(4.71439 -0.00460432 0)
(4.72729 -0.0038919 -7.35152e-20)
(4.73886 -0.00331283 0)
(4.74935 -0.00286772 0)
(4.759 -0.00255503 -7.19049e-20)
(4.76807 -0.00237129 0)
(4.77683 -0.00231143 0)
(4.78552 -0.00236914 7.04005e-20)
(4.79438 -0.00253714 6.99131e-20)
(4.80366 -0.00280729 0)
(4.81357 -0.00317068 -6.89498e-20)
(4.82433 -0.00361776 0)
(4.83611 -0.00413853 6.79931e-20)
(4.8491 -0.00472273 0)
(4.86344 -0.0053597 6.70357e-20)
(4.87925 -0.00603836 6.65555e-20)
(4.89663 -0.00674718 0)
(4.91567 -0.00747424 0)
(4.93641 -0.00820729 0)
(4.95886 -0.00893388 0)
(4.98302 -0.00964156 0)
(5.00885 -0.0103181 0)
(5.03628 -0.0109515 0)
(5.06523 -0.0115306 6.26853e-20)
(5.09556 -0.0120447 -6.22073e-20)
(5.12714 -0.0124841 0)
(5.1598 -0.0128401 0)
(5.19333 -0.0131055 0)
(5.22754 -0.0132741 0)
(5.2622 -0.0133421 -1.19838e-19)
(5.29708 -0.0133078 0)
(5.33193 -0.0131723 1.18163e-19)
(5.36652 -0.0129402 -1.17371e-19)
(5.40063 -0.0126199 0)
(5.43406 -0.0122238 0)
(5.46663 -0.0117686 0)
(5.49824 -0.0112746 1.14556e-19)
(5.52879 -0.0107649 1.13943e-19)
(5.55828 -0.0102642 0)
(5.58676 -0.00979746 1.1282e-19)
(5.61434 -0.0093876 1.12303e-19)
(5.64119 -0.00905443 -1.11809e-19)
(5.66753 -0.008813 0)
(5.69361 -0.00867288 0)
(5.71972 -0.00863802 -1.10421e-19)
(5.74617 -0.00870719 0)
(5.77325 -0.00887482 0)
(5.80124 -0.00913133 0)
(5.83042 -0.00946243 0)
(5.861 -0.0098473 1.0808e-19)
(5.89313 -0.0102561 1.07565e-19)
(5.92687 -0.0106482 0)
(5.96214 -0.0109714 1.06475e-19)
(5.99873 -0.0111641 0)
(6.0362 -0.0111538 0)
(6.07395 -0.0108509 1.04733e-19)
(6.11113 -0.0101153 0)
(6.14652 -0.00872834 1.03597e-19)
(6.17851 -0.00638763 0)
(6.20494 -0.00287488 0)
(6.22323 0.00116921 1.02214e-19)
(6.23253 0.00439911 0)
(6.23453 0.00683012 1.01507e-19)
(6.23029 0.00864696 0)
(6.22044 0.0099775 0)
(6.20539 0.0109329 0)
(6.18554 0.0115822 -1.00817e-19)
(6.16124 0.0119941 0)
(6.13278 0.0122585 1.00877e-19)
(6.10029 0.0124917 0)
(6.06364 0.0128393 0)
(6.02229 0.0134874 0)
(5.97505 0.0146951 0)
(5.91971 0.0168829 0)
(5.8519 0.0207382 0)
(5.76487 0.0280001 0)
(5.6394 0.0400427 -2.15256e-19)
(5.47148 0.0707352 0)
(5.09033 0.0961265 0)
(0.111059 -0.136063 1.15695e-19)
(0.266001 -0.274607 -9.88656e-20)
(0.430627 -0.344834 0)
(0.573992 -0.364502 5.75056e-20)
(0.685389 -0.349184 0)
(0.767002 -0.309332 2.68957e-20)
(0.821378 -0.251266 -5.43809e-20)
(0.849017 -0.178862 -5.43945e-20)
(0.849509 -0.0944711 0)
(0.821538 0.000761145 -5.51115e-20)
(0.76383 0.104839 -2.68851e-20)
(0.679467 0.214414 0)
(0.565893 0.325523 0)
(0.419335 0.431643 0)
(0.236331 0.523814 0)
(0.014458 0.592532 -2.77808e-20)
(-0.243405 0.629541 0)
(-0.527904 0.638103 5.03328e-20)
(-0.828705 0.630798 0)
(-1.13411 0.62258 0)
(-1.43636 0.62054 -4.08582e-20)
(-1.73082 0.623826 0)
(-2.0147 0.628486 3.65244e-20)
(-2.28526 0.630189 -1.70246e-20)
(-2.539 0.624902 1.62899e-20)
(-2.77226 0.609543 -1.56907e-20)
(-2.98208 0.582565 -1.51978e-20)
(-3.16659 0.544017 0)
(-3.32499 0.495149 0)
(-3.45729 0.437876 1.40219e-20)
(-3.56401 0.374323 -1.48701e-20)
(-3.64606 0.306525 0)
(-3.70459 0.236307 0)
(-3.74092 0.165334 1.21211e-20)
(-3.75654 0.095174 0)
(-3.75293 0.0272239 0)
(-3.73111 -0.037526 -9.81081e-21)
(-3.68691 -0.0982773 0)
(-3.62078 -0.155064 8.99299e-21)
(-3.53314 -0.207882 -1.32326e-20)
(-3.42473 -0.256661 0)
(-3.29666 -0.301275 0)
(-3.15026 -0.341588 -1.35725e-20)
(-2.98707 -0.377491 -7.94251e-21)
(-2.80871 -0.408918 -2.09848e-21)
(-2.6169 -0.435861 -6.46022e-22)
(-2.4134 -0.458371 6.39997e-21)
(-2.19999 -0.47656 2.60767e-20)
(-1.9784 -0.490591 -2.29819e-20)
(-1.75033 -0.500671 -1.61312e-20)
(-1.51737 -0.507039 0)
(-1.28104 -0.509947 2.28952e-20)
(-1.04272 -0.509647 -2.37237e-20)
(-0.803651 -0.506374 0)
(-0.565002 -0.500323 0)
(-0.327908 -0.491686 0)
(-0.0934798 -0.480798 3.97821e-20)
(0.137179 -0.468162 0)
(0.3635 -0.454239 -8.25669e-20)
(0.584914 -0.439329 0)
(0.800942 -0.423683 -8.63889e-20)
(1.01116 -0.407505 0)
(1.21525 -0.390972 8.89927e-20)
(1.41292 -0.374237 0)
(1.604 -0.357432 -9.05947e-20)
(1.78834 -0.340672 4.48856e-20)
(1.96585 -0.324055 0)
(2.13651 -0.307668 9.14956e-20)
(2.3003 -0.291581 4.62378e-20)
(2.45725 -0.275858 4.61099e-20)
(2.60743 -0.26055 0)
(2.75091 -0.245702 4.49133e-20)
(2.88779 -0.231351 4.5393e-20)
(3.01818 -0.217528 0)
(3.14221 -0.204258 -4.46999e-20)
(3.26003 -0.191561 8.80861e-20)
(3.37179 -0.179449 0)
(3.47766 -0.167931 4.34507e-20)
(3.57783 -0.157007 0)
(3.67248 -0.146672 -1.27243e-19)
(3.76182 -0.136914 0)
(3.84605 -0.127716 1.24473e-19)
(3.92537 -0.119053 4.1119e-20)
(3.99998 -0.110896 -4.03905e-20)
(4.0701 -0.103212 -7.98879e-20)
(4.13591 -0.0959641 7.90036e-20)
(4.19759 -0.0891156 0)
(4.25532 -0.0826297 0)
(4.30926 -0.076472 0)
(4.35958 -0.070612 -2.27486e-19)
(4.40641 -0.0650244 -7.51121e-20)
(4.44989 -0.0596903 7.43146e-20)
(4.49015 -0.0545976 0)
(4.52733 -0.0497418 7.25672e-20)
(4.56154 -0.0451245 -7.20709e-20)
(4.59294 -0.0407534 -7.13723e-20)
(4.62166 -0.0366405 0)
(4.64785 -0.0328016 0)
(4.67166 -0.0292541 0)
(4.69328 -0.0260161 -6.88026e-20)
(4.71289 -0.0231049 0)
(4.73068 -0.0205356 1.35153e-19)
(4.74688 -0.0183201 2.01109e-19)
(4.7617 -0.0164665 -1.32948e-19)
(4.77537 -0.0149781 0)
(4.78814 -0.0138535 -6.537e-20)
(4.80024 -0.0130867 0)
(4.81193 -0.0126667 -1.28762e-19)
(4.82345 -0.0125787 6.38331e-20)
(4.83503 -0.012804 6.3328e-20)
(4.84691 -0.0133204 0)
(4.8593 -0.014103 1.87133e-19)
(4.87242 -0.015124 -1.2373e-19)
(4.88644 -0.0163538 -6.14119e-20)
(4.90153 -0.017761 0)
(4.91784 -0.0193127 -6.04264e-20)
(4.9355 -0.0209752 -1.79706e-19)
(4.9546 -0.0227139 0)
(4.97521 -0.024494 -1.17816e-19)
(4.99738 -0.0262808 -1.1685e-19)
(5.02112 -0.0280401 -1.15894e-19)
(5.04644 -0.029739 0)
(5.07328 -0.0313458 0)
(5.10161 -0.0328306 0)
(5.13132 -0.0341657 5.60228e-20)
(5.1623 -0.0353258 5.57391e-20)
(5.19444 -0.0362882 0)
(5.22758 -0.0370336 1.09627e-19)
(5.26155 -0.0375461 1.08819e-19)
(5.29616 -0.0378145 0)
(5.33122 -0.0378324 1.0746e-19)
(5.36653 -0.0375998 2.13156e-19)
(5.4019 -0.0371241 -1.06061e-19)
(5.43712 -0.0364209 -1.05094e-19)
(5.47202 -0.0355148 0)
(5.50645 -0.0344396 0)
(5.54026 -0.0332382 0)
(5.57338 -0.0319612 -1.03184e-19)
(5.60576 -0.0306648 1.02447e-19)
(5.6374 -0.029408 2.0429e-19)
(5.66836 -0.0282492 -1.01857e-19)
(5.69875 -0.0272427 1.01236e-19)
(5.72871 -0.0264354 1.01094e-19)
(5.75844 -0.0258638 0)
(5.78818 -0.0255525 0)
(5.81818 -0.0255138 -9.98342e-20)
(5.8487 -0.0257478 0)
(5.88003 -0.0262432 0)
(5.91242 -0.0269769 1.97725e-19)
(5.94613 -0.0279122 0)
(5.98134 -0.0289953 9.79779e-20)
(6.01821 -0.0301518 -9.77652e-20)
(6.05679 -0.0312846 0)
(6.09705 -0.032275 9.66656e-20)
(6.13881 -0.0329885 0)
(6.1818 -0.0332805 0)
(6.2256 -0.0329999 -9.54869e-20)
(6.26971 -0.0319826 1.89838e-19)
(6.31364 -0.0300496 -9.45839e-20)
(6.35709 -0.0270115 0)
(6.40021 -0.0227677 0)
(6.4438 -0.0177871 9.31803e-20)
(6.48739 -0.0130101 0)
(6.52843 -0.00841602 9.25131e-20)
(6.56517 -0.00392797 0)
(6.59653 0.000452773 0)
(6.62179 0.0046728 0)
(6.64045 0.00869401 9.17385e-20)
(6.65219 0.0124996 0)
(6.65688 0.0161054 -9.16512e-20)
(6.65457 0.0195819 0)
(6.64542 0.023076 0)
(6.62964 0.0268448 1.84302e-19)
(6.60734 0.0313106 -1.85088e-19)
(6.57859 0.03722 0)
(6.54275 0.0457747 0)
(6.50024 0.0599394 0)
(6.44566 0.0825269 5.78665e-19)
(6.38975 0.133517 0)
(6.30157 0.196754 -4.03268e-19)
(0.137919 -0.654296 6.01609e-22)
(0.29348 -0.791083 1.20128e-19)
(0.440701 -0.746936 0)
(0.553253 -0.657602 -1.06791e-19)
(0.625769 -0.550282 0)
(0.664419 -0.432368 0)
(0.674216 -0.306343 -1.11931e-21)
(0.6572 -0.172774 5.23417e-20)
(0.614315 -0.0314673 5.4397e-20)
(0.545083 0.117161 5.31749e-20)
(0.44907 0.272973 0)
(0.327141 0.435336 0)
(0.179997 0.601727 -5.49461e-20)
(0.00784623 0.766126 -1.09554e-19)
(-0.190419 0.917373 1.05332e-19)
(-0.415167 1.04182 0)
(-0.666005 1.12905 9.18843e-20)
(-0.941039 1.17648 -4.07847e-20)
(-1.23399 1.19237 0)
(-1.53445 1.18861 7.40197e-20)
(-1.83201 1.174 3.27694e-20)
(-2.11855 1.15199 -6.52784e-20)
(-2.38858 1.12215 -2.9204e-20)
(-2.63847 1.08241 0)
(-2.86591 1.03091 5.76493e-20)
(-3.06979 0.967043 5.61888e-20)
(-3.25005 0.891504 0)
(-3.40736 0.80593 5.40213e-20)
(-3.54266 0.712406 0)
(-3.65684 0.613116 5.20379e-20)
(-3.75051 0.510126 2.37154e-20)
(-3.82392 0.405277 0)
(-3.87697 0.300136 0)
(-3.90931 0.195971 0)
(-3.92043 0.0937629 0)
(-3.90981 -0.0057401 0)
(-3.87706 -0.102039 0)
(-3.82201 -0.19471 3.45627e-20)
(-3.74524 -0.282802 -4.48459e-20)
(-3.64746 -0.365506 0)
(-3.52961 -0.442183 0)
(-3.39287 -0.51233 0)
(-3.2386 -0.57556 -2.44234e-21)
(-3.06835 -0.631604 6.53828e-21)
(-2.88379 -0.680312 5.69548e-21)
(-2.68666 -0.721652 4.26202e-21)
(-2.47875 -0.755714 6.15691e-21)
(-2.26185 -0.782698 -1.33524e-20)
(-2.03771 -0.802901 1.95616e-21)
(-1.80799 -0.816708 -2.18152e-20)
(-1.57428 -0.824568 0)
(-1.33805 -0.826978 -3.23822e-20)
(-1.10063 -0.824465 1.78288e-21)
(-0.863213 -0.817577 0)
(-0.62691 -0.80687 0)
(-0.39274 -0.792896 5.36015e-20)
(-0.161602 -0.776135 0)
(0.0656191 -0.756978 0)
(0.288228 -0.735822 -6.23227e-20)
(0.505681 -0.71304 -1.3187e-19)
(0.717505 -0.688984 6.91284e-20)
(0.923319 -0.663972 0)
(1.12281 -0.638285 -7.2018e-20)
(1.31575 -0.612173 0)
(1.50197 -0.585856 -7.20505e-20)
(1.68136 -0.559522 -7.49845e-20)
(1.85386 -0.533336 1.49497e-19)
(2.01949 -0.507437 7.45049e-20)
(2.17828 -0.481942 0)
(2.3303 -0.456949 -1.52548e-19)
(2.47568 -0.432542 0)
(2.61454 -0.408788 -2.30946e-19)
(2.74702 -0.385745 -1.53738e-19)
(2.87327 -0.36346 -1.53768e-19)
(2.99346 -0.341973 1.53626e-19)
(3.10774 -0.321315 -2.30453e-19)
(3.21628 -0.301511 0)
(3.31924 -0.282579 0)
(3.41678 -0.264528 1.51493e-19)
(3.50907 -0.247361 2.26269e-19)
(3.59627 -0.231069 0)
(3.67857 -0.215638 -7.45676e-20)
(3.75612 -0.20104 0)
(3.8291 -0.187244 2.19507e-19)
(3.8977 -0.17421 4.57611e-22)
(3.96209 -0.161891 -4.24195e-22)
(4.02244 -0.150241 -1.42248e-19)
(4.07891 -0.139211 0)
(4.13169 -0.128753 1.3954e-19)
(4.18091 -0.118826 3.1587e-22)
(4.22675 -0.109393 0)
(4.26936 -0.100426 0)
(4.30888 -0.0919048 0)
(4.34546 -0.0838194 -1.33154e-19)
(4.37924 -0.0761682 0)
(4.41039 -0.0689575 0)
(4.43905 -0.0621999 0)
(4.46538 -0.0559134 0)
(4.48954 -0.050119 0)
(4.51171 -0.0448389 -1.25723e-19)
(4.53207 -0.0400948 0)
(4.55081 -0.0359059 -1.23643e-19)
(4.56813 -0.0322873 -1.22551e-19)
(4.58422 -0.0292488 1.21472e-19)
(4.59931 -0.0267942 0)
(4.61361 -0.0249204 1.19348e-19)
(4.62733 -0.0236174 0)
(4.6407 -0.0228682 1.17255e-19)
(4.65393 -0.0226492 -1.16216e-19)
(4.66722 -0.0229307 -3.45328e-19)
(4.68079 -0.0236772 0)
(4.69481 -0.0248486 -3.39161e-19)
(4.70947 -0.0264004 -1.11882e-19)
(4.72492 -0.0282844 0)
(4.74131 -0.0304499 -2.19943e-19)
(4.75876 -0.0328437 -2.17944e-19)
(4.77737 -0.0354113 3.24078e-19)
(4.79722 -0.0380976 0)
(4.81836 -0.0408473 1.06184e-19)
(4.84083 -0.0436057 1.05246e-19)
(4.86464 -0.0463198 3.12695e-19)
(4.88977 -0.0489383 0)
(4.91619 -0.0514123 0)
(4.94384 -0.0536961 0)
(4.97265 -0.0557476 1.00574e-19)
(5.00252 -0.0575283 0)
(5.03333 -0.0590045 0)
(5.06496 -0.0601475 -9.86013e-20)
(5.09725 -0.0609348 -9.79048e-20)
(5.13006 -0.0613509 0)
(5.16322 -0.0613886 0)
(5.19657 -0.0610508 -1.92058e-19)
(5.22995 -0.0603514 0)
(5.26319 -0.0593169 1.89928e-19)
(5.29618 -0.0579875 1.88695e-19)
(5.32879 -0.0564163 0)
(5.36094 -0.0546694 0)
(5.39258 -0.0528235 -1.86294e-19)
(5.42369 -0.0509629 -2.34541e-22)
(5.45431 -0.0491753 -2.2276e-22)
(5.4845 -0.0475471 0)
(5.51437 -0.0461587 -3.67964e-19)
(5.54408 -0.0450793 0)
(5.5738 -0.0443638 0)
(5.60376 -0.0440497 0)
(5.63417 -0.0441565 1.82037e-19)
(5.66529 -0.0446848 0)
(5.69736 -0.0456173 -3.61622e-19)
(5.7306 -0.0469166 -1.80416e-19)
(5.76521 -0.0485234 0)
(5.80137 -0.0503521 -1.79191e-19)
(5.83916 -0.0522874 0)
(5.87863 -0.0541834 0)
(5.9197 -0.0558674 -5.3099e-19)
(5.96223 -0.0571492 3.52401e-19)
(6.00599 -0.0578339 0)
(6.05064 -0.0577362 3.49465e-19)
(6.09585 -0.0566969 -1.74211e-19)
(6.14125 -0.0546077 0)
(6.18656 -0.0514606 0)
(6.23156 -0.0473866 0)
(6.2759 -0.0425014 -5.15061e-19)
(6.319 -0.0367956 0)
(6.35999 -0.030473 -1.70998e-19)
(6.39793 -0.0236806 0)
(6.43204 -0.0165578 0)
(6.46147 -0.0092705 0)
(6.48553 -0.00194426 0)
(6.50368 0.00530615 0)
(6.51549 0.0124028 0)
(6.52068 0.0193393 -3.40466e-19)
(6.51908 0.0262131 0)
(6.51058 0.0332698 -1.71162e-19)
(6.49502 0.0409624 5.15569e-19)
(6.47216 0.0501211 0)
(6.44141 0.0620551 0)
(6.40231 0.0798057 -3.51734e-19)
(6.35333 0.106885 -3.58146e-19)
(6.29616 0.159356 3.62378e-19)
(6.2497 0.241285 3.75095e-19)
(0.0946136 -1.04478 -2.02555e-19)
(0.202737 -1.07832 -1.73116e-19)
(0.273224 -0.93011 -1.09013e-19)
(0.315288 -0.764828 -5.34465e-20)
(0.331202 -0.596925 0)
(0.323571 -0.426223 1.06566e-19)
(0.293864 -0.250929 -5.50338e-20)
(0.242155 -0.0690437 0)
(0.166562 0.120387 -5.58762e-20)
(0.0670613 0.317242 0)
(-0.0571377 0.521228 1.11001e-19)
(-0.206636 0.730588 0)
(-0.380172 0.942427 4.87715e-20)
(-0.575342 1.15058 9.17459e-20)
(-0.789453 1.34371 -8.5854e-20)
(-1.01945 1.50663 0)
(-1.26238 1.62594 -7.40955e-20)
(-1.51534 1.69596 0)
(-1.77423 1.72122 0)
(-2.03354 1.71188 -5.94562e-20)
(-2.2875 1.67787 0)
(-2.53117 1.62571 -4.90682e-21)
(-2.76077 1.55864 0)
(-2.97379 1.47809 0)
(-3.16891 1.38508 4.71567e-21)
(-3.34569 1.28084 -4.82201e-20)
(-3.50416 1.16692 -5.23322e-20)
(-3.64442 1.04496 -4.71693e-20)
(-3.7664 0.916551 0)
(-3.86979 0.783182 -9.67081e-20)
(-3.95401 0.646228 0)
(-4.01832 0.506994 -4.88485e-20)
(-4.06193 0.366751 0)
(-4.08403 0.22676 0)
(-4.08405 0.0882225 4.41231e-20)
(-4.06156 -0.047626 0)
(-4.01652 -0.179652 -3.84337e-20)
(-3.94917 -0.306656 3.70228e-21)
(-3.86007 -0.427448 5.96487e-20)
(-3.75003 -0.540937 -5.55314e-20)
(-3.62013 -0.646175 0)
(-3.47168 -0.742374 0)
(-3.30619 -0.828918 -1.77674e-20)
(-3.12536 -0.905374 0)
(-2.93102 -0.9715 -3.60482e-21)
(-2.72504 -1.02725 -9.48093e-22)
(-2.50934 -1.07275 -5.56553e-21)
(-2.28581 -1.1083 0)
(-2.05626 -1.13437 1.49035e-20)
(-1.82241 -1.15153 1.95861e-20)
(-1.58584 -1.16043 -4.56021e-20)
(-1.34798 -1.16181 2.89084e-20)
(-1.11011 -1.15643 3.35294e-20)
(-0.873385 -1.14507 0)
(-0.63879 -1.1285 0)
(-0.407223 -1.10748 -4.71676e-20)
(-0.179407 -1.08268 0)
(0.043996 -1.05469 0)
(0.262394 -1.02405 1.12736e-19)
(0.475313 -0.991294 1.16604e-19)
(0.682331 -0.956892 0)
(0.883122 -0.921282 0)
(1.07742 -0.884851 0)
(1.26503 -0.847945 0)
(1.44579 -0.810869 1.29807e-19)
(1.61962 -0.773888 -1.30063e-19)
(1.78647 -0.737232 -1.32873e-19)
(1.94636 -0.701096 -2.66852e-19)
(2.09932 -0.665642 0)
(2.24546 -0.631001 1.1388e-21)
(2.3849 -0.59728 0)
(2.51781 -0.564558 1.37107e-19)
(2.64437 -0.532897 9.54399e-22)
(2.76476 -0.502341 1.3786e-19)
(2.8792 -0.472919 -1.38076e-19)
(2.98789 -0.444654 7.77977e-22)
(3.09102 -0.417557 0)
(3.18879 -0.391635 -1.37396e-19)