/*--------------------------------*- C++ -*----------------------------------*\
  =========                 |
  \\      /  F ield         | OpenFOAM: The Open Source CFD Toolbox
   \\    /   O peration     | Website:  https://openfoam.org
    \\  /    A nd           | Version:  9
     \\/     M anipulation  |
\*---------------------------------------------------------------------------*/
FoamFile
{
    format      ascii;
    class       volScalarField;
    location    "0.25";
    object      epsilon;
}
// * * * * * * * * * * * * * * * * * * * * * * * * * * * * * * * * * * * * * //

dimensions      [0 2 -3 0 0 0 0];

internalField   nonuniform List<scalar> 
12225
(
209.836
126.415
81.8951
58.495
45.8454
38.4569
33.6072
30.027
27.1495
24.7164
22.5973
20.7186
19.0402
17.5561
16.3278
15.7178
18.0077
56.473
62.0737
55.1354
42.2359
33.311
27.5563
23.7044
20.9865
18.9477
17.3261
15.9733
14.8002
13.7479
12.7743
11.8511
10.9756
10.3204
11.4081
26.8324
31.6655
33.3078
28.8492
24.3419
20.8112
18.169
16.1838
14.6543
13.4382
12.4427
11.6066
10.8865
10.2501
9.67414
9.16314
8.91085
10.2854
20.5975
21.93
23.9175
22.202
19.6861
17.3466
15.402
13.8392
12.5864
11.5721
10.7409
10.0521
9.47603
8.99099
8.58526
8.28135
8.2928
9.78257
17.4454
17.8639
19.1223
18.3257
16.7852
15.1545
13.6765
12.4142
11.3595
10.4835
9.7566
9.15412
8.65732
8.25375
7.94215
7.75953
7.91898
9.35745
15.1726
15.9051
16.4307
15.893
14.8314
13.627
12.4677
11.4286
10.5283
9.76075
9.11312
8.57223
8.12774
7.77446
7.51891
7.40624
7.63297
8.92471
13.3449
14.89
14.8403
14.3101
13.4701
12.5162
11.5709
10.6964
9.91713
9.23778
8.65492
8.16297
7.75754
7.43862
7.21771
7.14237
7.38349
8.48703
11.8316
14.3455
13.8778
13.2645
12.5103
11.6959
10.8895
10.1328
9.44648
8.8382
8.30896
7.85749
7.48321
7.1894
6.99006
6.93092
7.15408
8.06131
10.5734
14.0497
13.2917
12.5733
11.8346
11.0905
10.3694
9.69351
9.07621
8.52368
8.0381
7.62015
7.27126
6.99639
6.81014
6.75369
6.94106
7.66267
9.5324
13.8888
12.9372
12.121
11.3644
10.6486
9.97571
9.35238
8.784
8.27355
7.82244
7.43167
7.10331
6.84278
6.66388
6.60187
6.74548
7.30157
8.67836
13.8018
12.726
11.8304
11.0437
10.3323
9.68306
9.09138
8.55581
8.0757
7.65074
7.28128
6.96912
6.71924
6.54374
6.47151
6.56981
6.98407
7.98492
13.7589
12.6128
11.6633
10.8482
10.1302
9.48872
8.91269
8.39595
7.93483
7.52724
7.17248
6.8716
6.62867
6.45377
6.37013
6.42896
6.7349
7.47433
13.7343
12.5436
11.555
10.7148
9.98628
9.34541
8.77716
8.272
7.8238
7.42879
7.08507
6.79274
6.55468
6.37876
6.28281
6.30452
6.51706
7.04571
13.7196
12.4995
11.4817
10.6197
9.87891
9.23445
8.66908
8.17088
7.73177
7.34636
7.01151
6.72611
6.49163
6.31345
6.20417
6.18958
6.31775
6.66815
13.7117
12.4747
11.4379
10.5598
9.80811
9.15841
8.59271
8.09785
7.66435
7.28559
6.95721
6.67691
6.4446
6.26318
6.14045
6.09247
6.14839
6.35526
13.7079
12.4625
11.4156
10.5279
9.7688
9.11482
8.54796
8.05458
7.62447
7.25014
6.92627
6.64946
6.41815
6.23298
6.09773
6.02102
6.01868
6.1161
13.7063
12.4575
11.4064
10.5147
9.75248
9.09689
8.53009
8.03833
7.61104
7.24018
6.91976
6.64547
6.41452
6.22573
6.07982
5.9802
5.93393
5.95296
13.7055
12.4558
11.4041
10.5121
9.7505
9.09631
8.53178
8.04303
7.61923
7.252
6.93481
6.66271
6.43201
6.24018
6.08591
5.96929
5.89221
5.85897
13.7051
12.4558
11.4056
10.5162
9.75803
9.10789
8.54775
8.06344
7.6439
7.28039
6.96608
6.69555
6.46454
6.26974
6.10866
5.97961
5.88183
5.81581
13.7059
12.4595
11.4142
10.5309
9.77907
9.13475
8.57946
8.09881
7.6816
7.31911
7.00446
6.7322
6.49798
6.29826
6.13021
5.99158
5.88076
5.79704
13.7099
12.4733
11.4404
10.5693
9.82744
9.19002
8.6384
8.15852
7.73969
7.37369
7.05408
6.77572
6.53444
6.3268
6.14992
6.00141
5.87941
5.7829
13.7242
12.5171
11.515
10.6687
9.94231
9.31141
8.75897
8.27297
7.84454
7.4669
7.13461
6.84318
6.58882
6.36826
6.17867
6.01759
5.88306
5.774
13.768
12.6381
11.7021
10.8966
10.1861
9.55242
8.98502
8.47731
8.02426
7.62151
7.26502
6.95099
6.67589
6.43645
6.22966
6.05284
5.90382
5.78144
13.8909
12.9371
12.1175
11.3603
10.6478
9.98147
9.36739
8.80928
8.30756
7.86048
7.46494
7.11719
6.81326
6.54922
6.32142
6.12654
5.96186
5.82594
14.2136
13.6135
12.9555
12.2144
11.4394
10.6786
9.96306
9.31011
8.72669
8.21168
7.76082
7.36855
7.02898
6.73646
6.48582
6.27251
6.09283
5.94471
15.0276
15.0592
14.5441
13.6925
12.7171
11.7465
10.8455
10.0394
9.33413
8.72583
8.20449
7.75938
7.38039
7.05857
6.78621
6.55681
6.36522
6.20837
17.0747
18.1009
17.4868
16.1888
14.7386
13.3664
12.1558
11.122
10.2513
9.5246
8.92039
8.41778
7.99937
7.65103
7.3614
7.12139
6.92391
6.76446
22.6126
24.7817
23.0908
20.5253
18.0687
15.9763
14.2737
12.9107
11.8214
10.947
10.2471
9.68372
9.22835
8.85939
8.56054
8.3194
8.1266
7.97568
41.0209
41.389
35.0673
29.1475
24.5516
21.112
18.5655
16.672
15.245
14.1518
13.3156
12.6733
12.1766
11.7917
11.4949
11.2692
11.1021
10.9848
135.977
97.0911
71.6537
54.9583
43.9636
36.674
31.7659
28.3726
25.9533
24.1865
22.9072
21.9648
21.2636
20.7451
20.371
20.1146
19.9561
19.8796
22.0916
7.27893
8.32435
8.77391
8.5937
8.69716
8.7854
8.79712
8.66884
8.57962
8.81081
8.89565
39.3543
38.1744
8.86749
39.3682
40.7991
39.3452
39.9701
42.0925
44.7922
47.4926
49.907
51.9697
53.8571
56.2331
59.8308
64.2796
69.5844
75.8259
83.0791
91.373
100.685
110.948
122.064
133.917
146.382
159.336
172.662
186.255
200.019
213.874
227.75
241.587
255.336
268.956
282.411
295.672
308.715
321.518
334.065
346.342
358.339
370.055
381.492
392.669
403.618
414.395
425.085
435.825
446.325
456.328
465.827
474.789
483.168
490.903
497.927
504.164
509.534
513.954
517.334
519.583
520.607
520.314
518.612
515.413
510.634
504.204
496.062
486.163
474.483
461.022
445.805
428.892
410.376
390.387
369.096
346.709
323.474
299.667
275.596
251.586
227.968
205.074
183.215
162.672
143.683
126.445
111.043
98.0114
86.9388
77.4215
69.3253
63.0001
57.9557
53.9089
50.7669
11.6636
53.183
52.602
51.9971
51.7386
51.792
52.0769
52.4842
53.185
57.3495
57.5257
58.1476
58.858
58.6808
12.3357
12.4881
53.4485
54.3582
55.229
56.0513
56.8164
57.5163
58.1441
58.6931
59.1579
59.5332
59.8147
59.9989
60.0826
60.0642
59.9433
59.7236
59.4188
59.0766
58.8858
59.675
66.0343
14.0955
61.0738
62.4125
61.5827
14.4058
14.3922
65.4777
63.4695
66.0742
63.4544
14.8727
64.9439
64.8329
15.1966
68.0876
15.1157
15.3001
15.2924
15.1718
69.5853
68.8046
15.7141
16.105
16.2544
71.5582
71.685
16.5035
14.949
15.2639
14.9976
17.0156
17.0831
16.7925
16.3305
15.7401
15.0217
32.9494
23.2396
20.4863
19.3407
18.9996
18.7251
18.542
18.4727
18.5096
18.6185
18.6328
19.3422
21.9514
24.19
25.8327
29.9625
33.9683
38.3398
43.2822
48.9981
55.0911
61.3333
67.7053
74.1463
80.5779
86.8977
92.9483
98.5401
103.562
107.973
111.791
115.077
117.916
120.401
122.62
124.653
126.567
128.413
130.233
132.053
133.893
135.763
137.668
139.611
141.588
143.596
145.631
147.687
149.76
151.846
153.943
156.052
158.175
160.322
162.504
164.742
167.063
169.511
172.137
175.009
178.066
181.08
184.014
186.846
189.554
192.115
194.502
196.686
198.636
200.317
201.694
202.728
203.381
203.611
203.377
202.639
201.356
199.492
197.012
193.889
190.098
185.626
180.469
174.634
168.141
161.025
153.336
145.141
136.521
127.576
118.414
109.158
99.9371
90.8825
82.1239
73.7835
65.9691
58.7665
52.2111
46.4476
41.5725
37.4492
34.0246
31.3304
29.2176
27.5443
26.0633
22.7568
25.4201
25.4628
25.2496
25.1238
25.1052
25.1612
25.2405
25.2775
25.4528
25.3691
25.185
25.3035
25.1513
22.3683
22.9061
25.9637
26.3515
26.542
26.6971
26.8259
26.9272
26.9993
27.0406
27.0498
27.0258
26.9678
26.8753
26.7482
26.5869
26.3927
26.1677
25.9148
25.6355
25.3248
24.9735
24.83
21.8325
24.9008
24.8685
23.9962
20.5662
20.4423
23.5039
23.1519
22.9709
22.1293
19.2043
21.964
21.3838
18.1171
20.369
15.6271
15.2961
15.2387
16.7311
19.6345
18.8802
13.2271
12.562
12.8497
18.7157
18.3108
12.1025
13.2841
12.498
12.9962
11.0983
10.7976
10.5536
10.2369
9.8638
9.47898
47.4756
31.279
26.243
23.8015
22.4428
21.6872
21.3552
21.3818
21.762
22.5412
23.762
25.5411
28.0766
31.391
35.5435
40.576
46.186
52.2219
58.5388
64.9788
71.2994
77.2803
82.7556
87.597
91.7146
95.0609
97.6357
99.4894
100.723
101.466
101.86
102.037
102.111
102.169
102.273
102.463
102.758
103.163
103.673
104.277
104.961
105.712
106.516
107.365
108.251
109.171
110.125
111.116
112.147
113.225
114.357
115.551
116.817
118.162
119.597
121.129
122.769
124.523
126.396
128.394
130.45
132.529
134.614
136.691
138.744
140.754
142.703
144.567
146.322
147.941
149.395
150.651
151.677
152.437
152.895
153.013
152.754
152.082
150.961
149.358
147.247
144.603
141.413
137.667
133.369
128.533
123.187
117.37
111.137
104.556
97.707
90.6824
83.5827
76.5139
69.5838
62.8971
56.5503
50.625
45.1779
40.2802
36.0928
32.5413
29.5806
27.1792
25.2786
23.7828
22.5766
21.452
21.3012
21.0222
20.7706
20.6067
20.524
20.4986
20.4985
20.4875
20.4716
20.4493
20.3884
20.4452
20.4787
20.2876
20.485
20.9833
21.1151
21.1698
21.2006
21.214
21.2096
21.1867
21.1442
21.0815
20.9979
20.8931
20.7669
20.6194
20.4512
20.2628
20.0552
19.8287
19.581
19.3039
18.987
18.6506
18.2063
18.4564
18.2366
17.7954
17.0351
16.7507
16.8495
16.5941
16.2408
15.8397
15.2715
15.3075
14.9187
14.2403
14.1291
13.2922
12.9845
12.7618
12.8124
12.8539
12.4816
11.4312
11.0273
10.9298
11.6425
11.3658
10.2825
10.6402
10.3298
10.2205
9.26586
8.95738
8.72436
8.45943
8.16629
7.87993
61.8253
38.2659
31.3984
28.3144
26.7082
25.9156
25.7069
26.0208
26.8863
28.3164
30.304
32.9512
36.3486
40.5294
45.4485
50.9649
56.8424
62.8229
68.6522
74.0916
78.9295
83.0141
86.2685
88.6885
90.3313
91.3007
91.7312
91.771
91.5661
91.2448
90.9097
90.6337
90.4617
90.4148
90.4959
90.6955
90.9966
91.3789
91.8223
92.309
92.8248
93.3597
93.9084
94.4695
95.0454
95.6412
96.2643
96.9233
97.6277
98.3875
99.2123
100.111
101.092
102.164
103.331
104.599
105.971
107.448
109.028
110.704
112.451
114.255
116.104
117.988
119.893
121.805
123.707
125.58
127.401
129.148
130.794
132.31
133.665
134.826
135.758
136.425
136.789
136.812
136.457
135.688
134.472
132.777
130.58
127.863
124.616
120.839
116.544
111.756
106.511
100.862
94.8744
88.6258
82.2058
75.7121
69.248
62.9177
56.8215
51.0501
45.678
40.7782
36.5233
32.8683
29.7789
27.2206
25.1482
23.5023
22.2043
21.1872
20.5421
20.0561
19.6971
19.449
19.2885
19.1902
19.1299
19.0855
19.0498
19.0293
19.0112
19.0301
19.0551
19.0606
19.1245
19.23
19.2612
19.2617
19.2472
19.2203
19.1808
19.1278
19.0606
18.9785
18.881
18.7676
18.6382
18.4927
18.3313
18.1543
17.9622
17.7547
17.5305
17.2864
17.0221
16.7515
16.5079
16.3682
16.1219
15.8057
15.4255
15.1347
14.9092
14.6329
14.3201
14.0081
13.6781
13.4351
13.1139
12.7488
12.4788
12.1193
11.8388
11.584
11.3862
11.1718
10.9091
10.5305
10.2501
10.0556
10.0029
9.77796
9.44735
9.45483
9.24425
9.0166
8.50983
8.23865
8.01183
7.77044
7.51322
7.26603
76.3923
45.8749
37.4748
33.8915
32.1464
31.4045
31.3849
32.0089
33.2358
35.0116
37.3992
40.4451
44.1576
48.4838
53.2954
58.3918
63.5236
68.433
72.8877
76.7061
79.775
82.059
83.5971
84.4867
84.8614
84.8685
84.6506
84.3316
84.0094
83.7525
83.6016
83.574
83.6689
83.8736
84.1681
84.5295
84.9352
85.3652
85.8031
86.2374
86.6611
87.072
87.4718
87.8659
88.2621
88.6702
89.1013
89.5668
90.0784
90.6471
91.2835
91.9968
92.7954
93.686
94.6742
95.7637
96.9567
98.2536
99.653
101.148
102.728
104.384
106.109
107.894
109.729
111.601
113.495
115.396
117.285
119.141
120.94
122.657
124.264
125.73
127.023
128.107
128.946
129.502
129.736
129.61
129.085
128.125
126.698
124.776
122.338
119.37
115.87
111.846
107.319
102.325
96.9152
91.1538
85.1199
78.9047
72.6086
66.3378
60.1994
54.2957
48.7177
43.5716
39.0249
35.0564
31.6471
28.7717
26.3943
24.473
22.9437
21.747
20.8524
20.1801
19.6817
19.3207
19.0646
18.8854
18.7589
18.6664
18.5976
18.5496
18.5147
18.4971
18.4875
18.4798
18.4826
18.49
18.4774
18.4517
18.4169
18.3735
18.3209
18.2583
18.1847
18.0994
18.0018
17.8912
17.7674
17.6301
17.4792
17.3149
17.1371
16.9456
16.74
16.5195
16.2859
16.0479
15.8213
15.6084
15.3619
15.0877
14.7924
14.5124
14.2432
13.9632
13.6714
13.3809
13.0874
12.8078
12.5104
12.207
11.9293
11.6441
11.3737
11.1138
10.8715
10.6322
10.3947
10.1383
9.89869
9.68381
9.4985
9.28818
9.07587
8.95146
8.75183
8.51674
8.1874
7.94347
7.72065
7.49052
7.25203
7.02151
91.0339
54.409
44.4721
40.3753
38.4766
37.7511
37.8461
38.5765
39.8379
41.6583
44.0564
47.0225
50.502
54.3846
58.5055
62.6595
66.6281
70.2111
73.2545
75.6678
77.4309
78.5883
79.2346
79.4927
79.4931
79.3562
79.1813
79.0414
78.9834
79.0303
79.1865
79.4431
79.7824
80.1823
80.6199
81.0733
81.5239
81.9571
82.3627
82.7352
83.0735
83.3804
83.662
83.9271
84.1864
84.4518
84.7359
85.0514
85.4106
85.8253
86.3063
86.8631
87.5041
88.2362
89.0651
89.9947
91.0275
92.1645
93.4051
94.7459
96.1788
97.6997
99.3033
100.983
102.73
104.535
106.387
108.271
110.173
112.075
113.957
115.798
117.573
119.255
120.815
122.221
123.438
124.431
125.161
125.587
125.67
125.368
124.643
123.457
121.777
119.579
116.842
113.558
109.731
105.378
100.533
95.2435
89.5765
83.6134
77.4498
71.1925
64.9546
58.8498
52.9847
47.5185
42.5999
38.2331
34.4187
31.1469
28.3941
26.1261
24.2929
22.8338
21.6958
20.8197
20.1543
19.6557
19.286
19.0132
18.8108
18.6588
18.543
18.4555
18.3879
18.3363
18.2951
18.2603
18.2306
18.2025
18.1691
18.1306
18.0872
18.0383
17.983
17.9202
17.8488
17.7679
17.6767
17.5744
17.4606
17.3347
17.1964
17.0456
16.8822
16.7058
16.5164
16.3139
16.1001
15.8795
15.658
15.4328
15.1915
14.9349
14.6659
14.3949
14.1219
13.8433
13.5589
13.2734
12.9858
12.6995
12.4083
12.1174
11.837
11.5597
11.2878
11.0225
10.7669
10.5194
10.28
10.0414
9.80867
9.58532
9.37154
9.15954
8.95644
8.77793
8.57223
8.34369
8.08243
7.85191
7.63025
7.40472
7.1754
6.95126
104.823
62.9675
51.6746
47.1241
45.0732
44.3173
44.3288
44.9046
46.0084
47.6252
49.733
52.2831
55.1889
58.323
61.526
64.625
67.4573
69.8934
71.8547
73.3192
74.3189
74.9271
75.2417
75.3671
75.3996
75.4177
75.4775
75.6133
75.8396
76.1558
76.5507
77.006
77.5003
78.0118
78.5198
79.0069
79.459
79.8666
80.224
80.5299
80.7868
81.0004
81.1791
81.3334
81.4751
81.6173
81.7731
81.9556
82.1775
82.4508
82.7864
83.1941
83.6824
84.2587
84.9286
85.6968
86.5661
87.5384
88.6138
89.7914
91.0637
92.4294
93.885
95.4257
97.0455
98.7369
100.491
102.298
104.145
106.019
107.905
109.785
111.639
113.445
115.179
116.813
118.318
119.659
120.801
121.705
122.33
122.633
122.569
122.095
121.166
119.745
117.797
115.295
112.223
108.578
104.372
99.6344
94.4141
88.779
82.8159
76.6285
70.3331
64.0535
57.9117
52.1301
46.8266
42.0346
37.7791
34.0696
30.8977
28.2391
26.056
24.2892
22.8814
21.7753
20.9171
20.2587
19.7574
19.3772
19.0883
18.8672
18.6964
18.5633
18.4587
18.3752
18.307
18.2497
18.2002
18.1553
18.1117
18.0677
18.0223
17.9743
17.9222
17.8647
17.8005
17.7286
17.6478
17.5573
17.4562
17.3439
17.22
17.084
16.9355
16.7743
16.6002
16.4136
16.2153
16.0079
15.7936
15.571
15.3364
15.0897
14.8322
14.5675
14.2966
14.0194
13.7369
13.4511
13.1621
12.8714
12.5781
12.2855
11.9977
11.7135
11.4331
11.1581
10.8902
10.6303
10.3785
10.1321
9.89113
9.65655
9.42835
9.20615
8.99152
8.78515
8.56931
8.34221
8.10378
7.87645
7.65267
7.42707
7.20031
6.97718
117.33
70.9986
58.5058
53.5484
51.3185
50.3386
50.1208
50.4749
51.3141
52.5883
54.2495
56.2322
58.4451
60.7726
63.0847
65.2537
67.1725
68.769
70.0145
70.9227
71.5418
71.942
72.2018
72.3951
72.5834
72.811
73.1044
73.4741
73.918
74.4244
74.9763
75.5535
76.135
76.7015
77.2356
77.7237
78.1553
78.5244
78.8284
79.0686
79.2494
79.3781
79.4641
79.5189
79.5547
79.5847
79.6224
79.6809
79.773
79.9107
80.1049
80.3656
80.7015
81.1199
81.6271
82.2279
82.9257
83.723
84.6207
85.6188
86.711
87.897
89.1748
90.5412
91.9921
93.5222
95.1252
96.794
98.5201
100.294
102.104
103.938
105.782
107.619
109.43
111.194
112.886
114.478
115.939
117.234
118.322
119.162
119.706
119.907
119.712
119.071
117.936
116.261
114.011
111.159
107.693
103.62
98.9664
93.7811
88.1369
82.1292
75.8732
69.4999
63.1548
57.1096
51.4505
46.2447
41.5446
37.3828
33.7695
30.6933
28.1295
26.0236
24.3187
22.9571
21.8829
21.0443
20.3944
19.8931
19.5066
19.2077
18.9751
18.7929
18.6488
18.5339
18.4413
18.3654
18.302
18.2476
18.1991
18.1541
18.1109
18.0676
18.0225
17.974
17.9204
17.8605
17.793
17.7167
17.6306
17.5339
17.4258
17.3058
17.1733
17.0279
16.8695
16.6982
16.5144
16.3195
16.1146
15.8992
15.6722
15.4333
15.1832
14.9234
14.6551
14.3791
14.0964
13.8083
13.5156
13.2193
12.9202
12.6204
12.3223
12.0264
11.7334
11.4446
11.1615
10.8852
10.616
10.3531
10.0963
9.84577
9.60151
9.36375
9.13231
8.90559
8.67691
8.44427
8.20849
7.97732
7.74805
7.51852
7.28944
7.06342
128.115
78.05
64.4851
59.044
56.4686
55.2614
54.8503
54.9834
55.5374
56.4397
57.6307
59.0449
60.6038
62.2168
63.79
65.2389
66.4994
67.5373
68.3497
68.9621
69.4196
69.7772
70.0896
70.404
70.7552
71.1647
71.6407
72.1806
72.7739
73.4043
74.053
74.7002
75.3268
75.9155
76.4521
76.9254
77.3277
77.655
77.9068
78.0857
78.1973
78.2494
78.2522
78.217
78.1565
78.0837
78.0118
77.9542
77.9233
77.9311
77.9886
78.1056
78.291
78.5522
78.8956
79.3262
79.8479
80.4636
81.1748
81.9821
82.88
83.8683
84.9461
86.1112
87.3609
88.6919
90.1002
91.5811
93.1295
94.7395
96.4042
98.116
99.8656
101.643
103.434
105.226
107
108.735
110.407
111.985
113.436
114.72
115.792
116.6
117.09
117.202
116.875
116.049
114.667
112.68
110.049
106.754
102.795
98.197
93.0124
87.322
81.2336
74.8757
68.4636
62.2294
56.2745
50.696
45.575
40.9695
36.9112
33.4057
30.4427
27.9759
25.9519
24.3136
23.0034
21.9666
21.1527
20.5173
20.0225
19.6373
19.3366
19.1009
18.9154
18.7687
18.6521
18.5592
18.4845
18.4238
18.3733
18.3302
18.2919
18.256
18.2205
18.1834
18.1429
18.0974
18.0452
17.9851
17.9158
17.8363
17.7456
17.6429
17.5275
17.399
17.2569
17.1013
16.9323
16.7506
16.5566
16.3507
16.1322
15.901
15.6574
15.4025
15.1371
14.8622
14.5789
14.2882
13.9911
13.6886
13.3819
13.0728
12.763
12.4537
12.1458
11.8409
11.5401
11.2446
10.9553
10.6721
10.3952
10.1248
9.861
9.60386
9.35287
9.10661
8.86224
8.6183
8.37509
8.13503
7.89701
7.66012
7.42489
7.1926
136.848
83.7058
68.9852
63.0517
60.2546
58.9083
58.3607
58.3166
58.6276
59.2077
59.995
60.9325
61.9603
63.0156
64.0379
64.9763
65.7971
66.4872
67.0547
67.5246
67.9321
68.3153
68.7092
69.1407
69.6271
70.175
70.7822
71.439
72.1306
72.8394
73.5461
74.2321
74.8797
75.4739
76.0022
76.4554
76.8273
77.1154
77.3202
77.445
77.4959
77.481
77.4104
77.2956
77.1489
76.9833
76.8119
76.6476
76.5028
76.3894
76.3182
76.299
76.3406
76.4504
76.6348
76.8991
77.2471
77.6821
78.2059
78.8198
79.5186
80.3019
81.169
82.1183
83.1481
84.2563
85.4409
86.6992
88.0289
89.4271
90.8908
92.4166
94.0005
95.6375
97.3214
99.0442
100.796
102.563
104.329
106.072
107.765
109.376
110.862
112.177
113.265
114.061
114.498
114.502
113.996
112.911
111.181
108.757
105.607
101.729
97.1463
91.9201
86.1443
79.9478
73.6062
67.2872
61.1222
55.2377
49.7431
44.7236
40.2353
36.3041
32.9358
30.0961
27.738
25.8068
24.2449
22.995
22.0037
21.2226
20.6098
20.1302
19.755
19.4614
19.2315
19.0516
18.9108
18.8011
18.716
18.6503
18.5994
18.5597
18.528
18.5013
18.4773
18.4535
18.4278
18.3984
18.3633
18.321
18.27
18.2091
18.1371
18.053
17.956
17.8454
17.7208
17.5818
17.4284
17.2609
17.0794
16.8844
16.6756
16.4529
16.2165
15.967
15.7053
15.4322
15.1487
14.8558
14.5546
14.2462
13.9317
13.6127
13.2909
12.9676
12.644
12.3217
12.002
11.6861
11.375
11.0694
10.77
10.477
10.1908
9.91145
9.63864
9.37146
9.10856
8.84895
8.59247
8.33962
8.08979
7.84245
7.59779
7.35625
142.315
87.166
71.786
65.5965
62.69
61.2786
60.6584
60.504
60.6491
60.9997
61.4951
62.0882
62.7372
63.4031
64.0516
64.6567
65.2038
65.6918
66.132
66.5447
66.9547
67.3864
67.86
68.3888
68.9783
69.6267
70.3254
71.0612
71.8173
72.5755
73.3173
74.0247
74.6817
75.2744
75.7918
76.2258
76.5713
76.8264
76.992
77.072
77.0724
77.0013
76.8688
76.686
76.4651
76.2187
75.9597
75.7009
75.4544
75.2319
75.0441
74.9007
74.8103
74.7802
74.8168
74.9251
75.1093
75.3723
75.7163
76.1427
76.6475
77.2291
77.8863
78.6178
79.4226
80.2993
81.247
82.2648
83.3522
84.5089
85.7349
87.0303
88.3953
89.8299
91.3335
92.9048
94.5408
96.2362
97.9829
99.7684
101.575
103.378
105.146
106.837
108.4
109.773
110.883
111.648
111.98
111.788
110.983
109.484
107.229
104.178
100.326
95.704
90.3815
84.5271
78.3835
72.0988
65.8287
59.7251
53.9249
48.5409
43.6554
39.3174
35.5502
32.3359
29.6369
27.4033
25.5786
24.1047
22.9254
21.9889
21.2496
20.6685
20.213
19.8569
19.5794
19.3639
19.1978
19.0709
18.9755
18.905
18.8544
18.8189
18.7948
18.7785
18.7672
18.758
18.7484
18.7363
18.7196
18.6964
18.665
18.624
18.5719
18.5077
18.4302
18.3388
18.2327
18.1114
17.9748
17.8228
17.6553
17.4727
17.2749
17.0619
16.8338
16.5909
16.334
16.0639
15.7813
15.4874
15.1831
14.8695
14.5478
14.2196
13.8862
13.5493
13.2102
12.8704
12.5314
12.1946
11.8612
11.5324
11.2089
10.8917
10.5811
10.2775
9.98093
9.69096
9.40696
9.12829
8.85463
8.58582
8.32133
8.06072
7.80379
7.55033
145.355
89.0346
73.2224
66.8734
63.9173
62.4943
61.8609
61.6683
61.7356
61.9625
62.2889
62.6753
63.0937
63.5227
63.9466
64.3565
64.7504
65.1339
65.5188
65.9208
66.3564
66.8401
67.3823
67.9873
68.6536
69.374
70.1366
70.9262
71.7256
72.5164
73.2806
74.0014
74.6635
75.2541
75.7629
76.1825
76.5085
76.7391
76.8756
76.9216
76.8831
76.7682
76.5865
76.3488
76.0671
75.7539
75.4215
75.0827
74.7493
74.4329
74.1439
73.8918
73.6851
73.531
73.4354
73.4035
73.4389
73.5446
73.7226
73.9742
74.2978
74.689
75.1462
75.6684
76.2542
76.9032
77.6149
78.3896
79.228
80.1317
81.1026
82.1436
83.2582
84.45
85.7232
87.0816
88.5288
90.0667
91.6954
93.4117
95.2079
97.0704
98.9775
100.898
102.79
104.597
106.25
107.665
108.746
109.387
109.478
108.912
107.592
105.442
102.419
98.5206
93.7927
88.4388
82.6211
76.4972
70.2388
64.0183
57.9975
52.3157
47.0823
42.3719
38.2252
34.6458
31.6082
29.0696
26.977
25.2723
23.8978
22.7989
21.9265
21.2379
20.6971
20.2744
19.9459
19.6925
19.4993
19.3542
19.248
19.1727
19.1223
19.0913
19.0752
19.07
19.0721
19.0783
19.0858
19.0921
19.0947
19.0916
19.0808
19.0606
19.0296
18.9862
18.9295
18.8582
18.7718
18.6694
18.5508
18.4156
18.2636
18.0949
17.9097
17.7079
17.4894
17.2547
17.0041
16.7384
16.4583
16.1648
15.8589
15.5416
15.2141
14.8778
14.5341
14.1846
13.8309
13.4743
13.1166
12.7593
12.4038
12.0515
11.7036
11.3611
11.025
10.6958
10.374
10.0595
9.75225
9.45188
9.15812
8.87064
8.58893
8.31247
8.04074
7.77298
146.489
89.6213
73.5422
67.099
64.1351
62.7421
62.1473
61.9827
62.0552
62.2573
62.5275
62.8303
63.1458
63.4638
63.781
64.0996
64.4258
64.7698
65.1437
65.56
66.0301
66.5623
67.1605
67.8239
68.5468
69.3189
70.1269
70.9544
71.7842
72.5982
73.3792
74.1107
74.7783
75.3698
75.8754
76.2879
76.6031
76.8194
76.9377
76.9617
76.8971
76.7515
76.5342
76.256
75.9282
75.5631
75.1729
74.7699
74.366
73.9723
73.5991
73.2559
72.9506
72.6904
72.481
72.3269
72.2317
72.1981
72.2276
72.3214
72.4798
72.6965
72.9693
73.2967
73.6776
74.1114
74.5984
75.1392
75.7355
76.3899
77.1057
77.8876
78.7409
79.6723
80.6888
81.7986
83.0097
84.3302
85.7669
87.3251
89.0066
90.8085
92.721
94.7253
96.791
98.8738
100.913
102.829
104.527
105.893
106.801
107.122
106.726
105.503
103.368
100.276
96.2861
91.5422
86.1727
80.3358
74.2107
67.9849
61.8405
55.9418
50.4242
45.388
40.8959
36.9727
33.6085
30.7706
28.4112
26.4743
24.9015
23.6361
22.6263
21.8261
21.196
20.7032
20.3209
20.0273
19.8051
19.6406
19.5225
19.4419
19.3914
19.3649
19.3569
19.3628
19.3787
19.4008
19.4259
19.4511
19.4737
19.4914
19.502
19.5036
19.4944
19.4729
19.4377
19.3878
19.322
19.2397
19.1402
19.0231
18.8881
18.7348
18.5638
18.3747
18.1676
17.9425
17.7
17.4405
17.1648
16.8736
16.5679
16.2487
15.9171
15.5745
15.2223
14.8619
14.495
14.1231
13.7479
13.3711
12.9943
12.6191
12.2469
11.8792
11.5171
11.1616
10.8135
10.4732
10.1409
9.81679
9.50063
9.19215
8.89091
8.59629
8.30747
8.02335
146.014
89.1637
72.9742
66.4989
63.564
62.2358
61.7222
61.6406
61.7866
62.0455
62.3518
62.6701
62.9836
63.2882
63.5875
63.8906
64.2095
64.5575
64.9478
65.3919
65.8986
66.4729
67.1156
67.8229
68.587
69.3964
70.2367
71.0918
71.9444
72.7768
73.5723
74.3151
74.9912
75.5886
76.0976
76.5114
76.8255
77.0382
77.1501
77.1645
77.0868
76.9241
76.6855
76.3812
76.0223
75.6207
75.1884
74.7374
74.2794
73.8252
73.3852
72.9682
72.5822
72.2338
71.9286
71.6708
71.4634
71.3088
71.2083
71.1627
71.1723
71.2315
71.3372
71.4874
71.681
71.9173
72.1968
72.5206
72.8909
73.3106
73.7842
74.3171
74.916
75.5888
76.3449
77.1945
78.149
79.2204
80.4209
81.762
83.2536
84.9022
86.7094
88.6692
90.7651
92.9667
95.2267
97.4779
99.6306
101.573
103.173
104.283
104.75
104.428
103.192
100.964
97.791
93.7427
88.9277
83.4944
77.6213
71.5039
65.3402
59.3153
53.5891
48.287
43.4953
39.2609
35.5922
32.469
29.851
27.6859
25.9161
24.4839
23.3352
22.4211
21.6994
21.1342
20.6958
20.36
20.1073
19.9218
19.7909
19.7042
19.6531
19.6305
19.6304
19.6474
19.677
19.7151
19.758
19.8024
19.8454
19.8844
19.9168
19.9407
19.954
19.955
19.9423
19.9144
19.8703
19.8091
19.7299
19.6322
19.5155
19.3793
19.2238
19.0491
18.8549
18.6414
18.4087
18.1574
17.8879
17.6011
17.2977
16.9788
16.6453
16.2986
15.9399
15.5708
15.1927
14.8074
14.4166
14.0219
13.6252
13.2282
12.8327
12.4403
12.0524
11.6704
11.2955
10.9285
10.5701
10.2206
9.88021
9.54879
9.22597
8.91108
8.60316
8.30105
144.181
87.8761
71.7353
65.294
62.425
61.1919
60.793
60.8355
61.1059
61.4815
61.8917
62.298
62.6834
63.0452
63.3905
63.7318
64.085
64.466
64.8898
65.3684
65.9103
66.5196
67.1961
67.935
68.728
69.5633
70.4264
71.3015
72.1717
73.0198
73.8295
74.5854
75.2737
75.8825
76.4023
76.8258
77.1486
77.3683
77.4854
77.5026
77.4246
77.2584
77.0123
76.6961
76.3207
75.8974
75.438
74.9543
74.4576
73.9586
73.4674
72.9926
72.5418
72.1216
71.7369
71.3916
71.0886
70.8295
70.6156
70.447
70.3238
70.2419
70.1973
70.1878
70.2122
70.2701
70.362
70.4892
70.6542
70.8605
71.1127
71.4167
71.7797
72.2105
72.7191
73.3169
74.0171
74.8338
75.7824
76.8785
78.1378
79.5742
81.1987
83.0166
85.0249
87.2084
89.5359
91.9556
94.3914
96.7404
98.8722
100.633
101.852
102.354
101.978
100.629
98.2921
94.9946
90.8159
85.8848
80.3711
74.4715
68.3934
62.3384
56.4877
50.9899
45.9549
41.4524
37.5111
34.1253
31.2643
28.8812
26.9207
25.3252
24.0391
23.0115
22.1976
21.5589
21.0631
20.6838
20.3992
20.1916
20.0468
19.953
19.9005
19.8813
19.8886
19.9163
19.9593
20.0131
20.0736
20.1372
20.2007
20.2611
20.3157
20.3621
20.3983
20.4224
20.4326
20.4276
20.4059
20.3666
20.3087
20.2315
20.1343
20.0167
19.8783
19.7195
19.54
19.3397
19.1187
18.8775
18.6164
18.3362
18.0374
17.721
17.388
17.0396
16.6769
16.3014
15.9147
15.5183
15.1141
14.7037
14.289
13.8721
13.4547
13.0386
12.6258
12.2178
11.8162
11.4221
11.0368
10.6609
10.2949
9.93887
9.59272
9.25573
8.92687
8.60582
141.107
85.8944
69.9768
63.646
60.8851
59.7776
59.5222
59.7208
60.1526
60.688
61.25
61.7955
62.3047
62.7737
63.2098
63.6273
64.044
64.4782
64.9468
65.4636
66.0383
66.676
67.3769
68.1371
68.9486
69.8001
70.678
71.5669
72.4506
73.3124
74.1364
74.9075
75.6118
76.2377
76.7753
77.2171
77.558
77.7954
77.929
77.9609
77.8952
77.7382
77.4977
77.1829
76.8041
76.3724
75.8991
75.3956
74.873
74.3419
73.8117
73.2912
72.7876
72.307
71.8542
71.4328
71.0451
70.6926
70.376
70.0954
69.8505
69.6387
69.4561
69.3003
69.1702
69.0655
68.9871
68.9364
68.9163
68.9303
68.9833
69.0814
69.2319
69.4435
69.7263
70.0923
70.5546
71.1285
71.8305
72.6785
73.6914
74.8881
76.2862
77.9
79.738
81.7989
84.0678
86.5104
89.0683
91.6539
94.1475
96.3981
98.2271
99.4402
99.8491
99.3329
97.8244
95.3072
91.8245
87.4782
82.4213
76.8439
70.9562
64.9706
59.0848
53.468
48.2512
43.5288
39.351
35.729
32.6434
30.0548
27.9115
26.1574
24.7363
23.5961
22.6897
21.9766
21.4223
20.9979
20.68
20.4489
20.2889
20.187
20.1322
20.1157
20.1296
20.1674
20.2235
20.2927
20.3707
20.4534
20.5372
20.619
20.6959
20.7653
20.8248
20.8723
20.9061
20.9245
20.926
20.9095
20.8738
20.8181
20.7417
20.6439
20.5241
20.3827
20.2194
20.034
19.8265
19.5973
19.3466
19.075
18.783
18.4715
18.1413
17.7934
17.4292
17.0498
16.6568
16.2518
15.8364
15.4126
14.9821
14.547
14.1093
13.6711
13.2344
12.8011
12.373
11.9519
11.5392
11.136
10.7431
10.3611
9.99003
9.62918
9.27836
8.93674
137.378
83.654
68.0909
61.9266
59.2991
58.3281
58.2207
58.5782
59.1757
59.8781
60.603
61.3025
61.9528
62.5475
63.0925
63.6016
64.0934
64.5876
65.1029
65.6552
66.2561
66.9127
67.627
68.3966
69.215
70.0722
70.9555
71.8507
72.7421
73.6138
74.4502
75.2363
75.9585
76.6047
77.1649
77.6311
77.9977
78.2612
78.4209
78.4778
78.4355
78.2995
78.0768
77.776
77.4068
76.9797
76.5056
75.9956
75.4603
74.91
74.354
73.8006
73.257
72.729
72.2211
71.7365
71.2775
70.845
70.4395
70.0608
69.7085
69.381
69.0752
68.7889
68.5214
68.2728
68.0439
67.8368
67.6543
67.5003
67.3796
67.2984
67.2637
67.2841
67.3695
67.5311
67.782
68.1371
68.6129
69.2278
70.002
70.9568
72.1135
73.4927
75.1111
76.9786
79.0944
81.4412
83.9793
86.6398
89.3204
91.8819
94.148
95.9066
96.9689
97.1857
96.4433
94.6817
91.9047
88.1823
83.6442
78.4672
72.8576
67.0328
61.2019
55.5502
50.2268
45.3496
40.99
37.176
33.901
31.1341
28.8288
26.9315
25.3868
24.1419
23.1487
22.3649
21.7541
21.286
20.9351
20.6806
20.505
20.3942
20.3364
20.3216
20.3413
20.3884
20.4567
20.5405
20.6351
20.7362
20.8398
20.9425
21.0411
21.133
21.2155
21.2864
21.3437
21.3856
21.4106
21.4172
21.4044
21.371
21.3162
21.2393
21.1395
21.0169
20.8713
20.7025
20.5105
20.2953
20.0572
19.7965
19.5138
19.2098
18.8851
18.5409
18.178
17.7979
17.4018
16.9913
16.568
16.1337
15.6904
15.2401
14.7848
14.3268
13.8683
13.4114
12.9583
12.511
12.0714
11.6409
11.2208
10.812
10.4151
10.0299
9.6558
9.29225
133.397
81.4362
66.3413
60.3938
57.9175
57.0824
57.1115
57.6101
58.353
59.2023
60.0723
60.9112
61.6919
62.4049
63.054
63.6517
64.2161
64.7673
65.3254
65.9077
66.5279
67.1952
67.9139
68.6836
69.4994
70.3532
71.2337
72.1277
73.0205
73.8968
74.7415
75.5397
76.2779
76.9439
77.5271
78.0191
78.4137
78.7067
78.8963
78.9832
78.9698
78.8608
78.6626
78.3829
78.0309
77.6163
77.1497
76.6416
76.1023
75.5418
74.9693
74.3927
73.8192
73.2544
72.7027
72.1672
71.65
71.1519
70.6734
70.2139
69.7729
69.3497
68.9417
68.5475
68.1668
67.8
67.4484
67.1141
66.8002
66.5108
66.2508
66.0262
65.844
65.7123
65.6405
65.6395
65.7214
65.9004
66.1923
66.6151
67.1885
67.9345
68.876
70.0365
71.4374
73.0961
75.0212
77.2089
79.6354
82.2489
84.9667
87.6664
90.1647
92.2743
93.8088
94.5916
94.4757
93.3644
91.2246
88.0931
84.0731
79.3232
74.04
68.4394
62.736
57.1258
51.7726
46.8128
42.3358
38.3852
34.9672
32.0598
29.6228
27.6063
25.9565
24.6212