/*--------------------------------*- C++ -*----------------------------------*\
  =========                 |
  \\      /  F ield         | OpenFOAM: The Open Source CFD Toolbox
   \\    /   O peration     | Website:  https://openfoam.org
    \\  /    A nd           | Version:  9
     \\/     M anipulation  |
\*---------------------------------------------------------------------------*/
FoamFile
{
    format      ascii;
    class       volScalarField;
    location    "0.25";
    object      k;
}
// * * * * * * * * * * * * * * * * * * * * * * * * * * * * * * * * * * * * * //

dimensions      [0 2 -2 0 0 0 0];

internalField   nonuniform List<scalar> 
12225
(
0.266648
0.160643
0.104073
0.074341
0.0582696
0.0488833
0.0427232
0.0381768
0.0345239
0.0314359
0.0287468
0.0263625
0.0242313
0.0223439
0.0207743
0.019959
0.0225926
0.0690488
0.335461
0.250414
0.196747
0.164744
0.144479
0.130429
0.119789
0.111152
0.1038
0.0973468
0.0915511
0.086252
0.0813482
0.0768186
0.072827
0.0704907
0.0759125
0.12545
0.345418
0.285967
0.239638
0.206762
0.183303
0.165959
0.152518
0.141615
0.132449
0.124544
0.117603
0.11143
0.105909
0.101023
0.0970204
0.0954141
0.103296
0.150859
0.350225
0.304995
0.265452
0.234175
0.209947
0.191022
0.175897
0.163472
0.153008
0.144028
0.136218
0.129377
0.123395
0.118295
0.114438
0.113564
0.122617
0.165178
0.353227
0.316601
0.282532
0.253661
0.229949
0.210579
0.194617
0.181264
0.169916
0.16015
0.151674
0.144302
0.137948
0.132677
0.128944
0.128546
0.137666
0.174127
0.355245
0.324229
0.294466
0.268087
0.245484
0.226351
0.210149
0.196334
0.184452
0.174156
0.165199
0.157423
0.150772
0.145353
0.14167
0.141441
0.149857
0.180171
0.356649
0.329481
0.303087
0.279013
0.257747
0.239237
0.223196
0.209275
0.197146
0.186546
0.177278
0.169222
0.162351
0.156802
0.15309
0.152765
0.160023
0.184616
0.357644
0.333193
0.309435
0.287393
0.267499
0.249811
0.23419
0.220419
0.208274
0.197563
0.188141
0.179922
0.172907
0.167251
0.163449
0.16284
0.168726
0.188222
0.358351
0.335849
0.314148
0.293849
0.275266
0.258482
0.243435
0.229994
0.21801
0.20735
0.19791
0.189638
0.182556
0.176825
0.172897
0.171895
0.176364
0.191458
0.358851
0.337753
0.317651
0.298816
0.281432
0.265559
0.251167
0.238174
0.226483
0.216001
0.206661
0.198436
0.191363
0.185597
0.181539
0.180101
0.18322
0.194605
0.359202
0.33911
0.320236
0.30261
0.286289
0.271288
0.257579
0.245105
0.233797
0.223594
0.214452
0.206362
0.19937
0.193619
0.18945
0.18759
0.189493
0.197816
0.359425
0.339987
0.321966
0.305238
0.289757
0.275493
0.262403
0.250434
0.239532
0.229651
0.220763
0.212866
0.206009
0.20032
0.196085
0.193885
0.19483
0.200875
0.359584
0.340625
0.323263
0.307268
0.292515
0.278922
0.266426
0.25497
0.244506
0.234993
0.226414
0.218771
0.212111
0.206543
0.202301
0.199836
0.199977
0.204136
0.359707
0.341125
0.324315
0.308971
0.2949
0.281974
0.270099
0.259207
0.249245
0.240177
0.231985
0.224675
0.218283
0.212899
0.208699
0.206017
0.205438
0.207932
0.359794
0.341487
0.325102
0.310296
0.296826
0.284521
0.273258
0.262952
0.253538
0.244976
0.237244
0.230342
0.224295
0.219166
0.215079
0.21226
0.211097
0.212216
0.359849
0.341724
0.32564
0.31124
0.298256
0.286487
0.275786
0.266045
0.257188
0.249162
0.241938
0.235502
0.229865
0.225061
0.221166
0.218315
0.216743
0.216821
0.359879
0.34186
0.325966
0.311844
0.299216
0.287866
0.277632
0.268388
0.260045
0.252536
0.245818
0.239864
0.234666
0.230231
0.226591
0.223813
0.222015
0.221393
0.359889
0.341922
0.326131
0.312173
0.299772
0.288708
0.278809
0.269943
0.262007
0.254925
0.248639
0.243111
0.238311
0.234225
0.230851
0.228204
0.226325
0.225295
0.359881
0.341917
0.326153
0.312251
0.299939
0.288998
0.279258
0.270583
0.262867
0.256027
0.249999
0.244731
0.240183
0.236322
0.233125
0.230573
0.228661
0.227401
0.359849
0.341813
0.325948
0.311921
0.299468
0.288383
0.278505
0.269707
0.261887
0.254965
0.248875
0.243563
0.238983
0.235094
0.23186
0.22925
0.227239
0.22581
0.359785
0.341571
0.325439
0.311075
0.298244
0.286767
0.276507
0.26735
0.259206
0.251997
0.245656
0.240125
0.235354
0.231296
0.227907
0.225149
0.222985
0.221387
0.359653
0.341049
0.324352
0.309315
0.295774
0.283605
0.272702
0.262972
0.254327
0.246686
0.239978
0.234136
0.229099
0.224812
0.221222
0.218282
0.215949
0.214185
0.359398
0.340033
0.322303
0.306132
0.291488
0.278319
0.266552
0.256094
0.246851
0.238725
0.231625
0.225468
0.220177
0.21568
0.211916
0.208825
0.206355
0.204464
0.358936
0.338213
0.318787
0.30091
0.284738
0.270307
0.257538
0.246307
0.236478
0.22792
0.220507
0.214125
0.208674
0.204063
0.200214
0.197057
0.194531
0.192586
0.358156
0.335141
0.31313
0.292909
0.274831
0.25895
0.245158
0.233251
0.222989
0.214175
0.206631
0.200204
0.194763
0.190194
0.186404
0.183309
0.18084
0.178941
0.3569
0.330125
0.304333
0.281082
0.26084
0.243541
0.228895
0.216558
0.206175
0.197411
0.190023
0.18381
0.178609
0.174284
0.170727
0.167846
0.165565
0.163823
0.354939
0.321915
0.290708
0.26378
0.241377
0.22301
0.208008
0.195739
0.185694
0.177416
0.170559
0.164878
0.160185
0.156329
0.153195
0.150687
0.148728
0.147255
0.351902
0.307867
0.268976
0.238039
0.214056
0.195518
0.181078
0.169696
0.160632
0.153383
0.147498
0.142705
0.138808
0.135659
0.133142
0.131169
0.129667
0.128576
0.345648
0.280563
0.231701
0.197616
0.173753
0.156697
0.144183
0.134753
0.127496
0.121858
0.117422
0.113908
0.111131
0.108956
0.107284
0.106036
0.105153
0.104588
0.300212
0.214358
0.158195
0.121332
0.0970542
0.0809563
0.0701157
0.0626184
0.0572699
0.0533591
0.0505181
0.0484204
0.0468524
0.0456843
0.0448316
0.0442355
0.0438526
0.0436486
0.075129
0.113963
0.131668
0.141164
0.143039
0.145093
0.146356
0.146445
0.144834
0.142911
0.14565
0.146712
0.143062
0.138377
0.142994
0.140076
0.141797
0.142128
0.144497
0.149349
0.155443
0.161562
0.167021
0.171624
0.175667
0.180346
0.187583
0.196516
0.206987
0.219026
0.232661
0.247823
0.264348
0.282007
0.300542
0.319696
0.339228
0.358929
0.378622
0.398165
0.417445
0.436376
0.454896
0.472959
0.490534
0.507602
0.524151
0.540175
0.555673
0.570645
0.585098
0.599038
0.612477
0.625429
0.637919
0.64998
0.66166
0.673028
0.684186
0.695275
0.706071
0.71626
0.725853
0.734836
0.743177
0.750832
0.757746
0.763861
0.769112
0.773427
0.776731
0.778945
0.779986
0.779767
0.778198
0.775192
0.770657
0.764508
0.756661
0.74704
0.735578
0.72222
0.706928
0.689684
0.670494
0.649393
0.626446
0.601756
0.575467
0.547761
0.518868
0.489057
0.458641
0.427968
0.397418
0.367389
0.338297
0.310581
0.284609
0.261828
0.241355
0.222875
0.206353
0.192558
0.1813
0.171945
0.164758
0.179319
0.162434
0.159418
0.157601
0.156764
0.156638
0.157045
0.157861
0.159663
0.165531
0.167629
0.176674
0.17832
0.178504
0.179558
0.178783
0.16449
0.166063
0.167786
0.169409
0.17091
0.172272
0.173482
0.17453
0.175405
0.176099
0.176603
0.176912
0.177021
0.176926
0.176629
0.176141
0.175511
0.174921
0.17505
0.17838
0.190725
0.188611
0.174806
0.175176
0.1758
0.189483
0.187996
0.182469
0.174292
0.181688
0.179056
0.18581
0.177516
0.177445
0.186314
0.180476
0.18998
0.190409
0.18843
0.181213
0.176086
0.175588
0.189703
0.192619
0.191475
0.174324
0.174193
0.19035
0.174823
0.176417
0.173501
0.191828
0.191665
0.187454
0.181407
0.174035
0.165335
0.111009
0.159873
0.189594
0.209158
0.223298
0.232672
0.239016
0.243422
0.246664
0.249183
0.251276
0.255026
0.260531
0.271218
0.285218
0.301826
0.323192
0.348139
0.373435
0.399659
0.425166
0.448961
0.471027
0.491418
0.510242
0.527563
0.543362
0.557602
0.570393
0.581934
0.59253
0.602541
0.612341
0.622276
0.632639
0.643663
0.655516
0.668299
0.682063
0.69681
0.712508
0.7291
0.746515
0.764673
0.783495
0.802902
0.822823
0.843192
0.86395
0.885044
0.906425
0.928048
0.949867
0.97184
0.993919
1.01606
1.0382
1.0603
1.08231
1.10415
1.12557
1.14683
1.16791
1.18872
1.20916
1.22912
1.24848
1.2671
1.28482
1.30148
1.31689
1.33085
1.34316
1.35359
1.36192
1.3679
1.37128
1.37183
1.36929
1.36343
1.35401
1.34085
1.32376
1.30261
1.27731
1.24783
1.21421
1.17656
1.13508
1.09006
1.04189
0.991069
0.938164
0.883847
0.828854
0.773974
0.720008
0.66771
0.6176
0.570855
0.528881
0.491379
0.458215
0.429141
0.404785
0.384725
0.368768
0.358241
0.346084
0.337974
0.332371
0.32859
0.326296
0.325166
0.32495
0.325512
0.325933
0.327534
0.327745
0.329858
0.332336
0.339296
0.341377
0.341312
0.343333
0.34552
0.347597
0.349505
0.35121
0.352687
0.353912
0.354865
0.355527
0.355883
0.355919
0.355626
0.354994
0.354021
0.35271
0.351084
0.349206
0.347188
0.344972
0.340038
0.341231
0.335714
0.331657
0.328415
0.326582
0.32191
0.31314
0.310075
0.304157
0.300264
0.298849
0.290994
0.28736
0.286754
0.279792
0.278785
0.275245
0.271298
0.267495
0.261041
0.258179
0.258509
0.256503
0.253414
0.247104
0.244625
0.245093
0.238285
0.235144
0.232885
0.236094
0.233457
0.228189
0.221288
0.213176
0.203776
0.160379
0.216501
0.252427
0.276563
0.293631
0.306181
0.315855
0.323899
0.331424
0.33959
0.348964
0.360204
0.374587
0.393492
0.417363
0.4452
0.475785
0.507467
0.538677
0.568377
0.595518
0.619402
0.639811
0.656866
0.670908
0.682418
0.691975
0.700235
0.707894
0.71563
0.724049
0.733641
0.744758
0.757605
0.772252
0.788649
0.806658
0.826073
0.846653
0.868147
0.890308
0.91292
0.935797
0.958797
0.981819
1.0048
1.02771
1.05055
1.07334
1.0961
1.11887
1.14169
1.1646
1.18764
1.21081
1.23415
1.25765
1.28131
1.30512
1.32901
1.35304
1.37719
1.4014
1.42558
1.4496
1.47335
1.49667
1.51939
1.54133
1.56228
1.58203
1.60033
1.61692
1.63153
1.64387
1.65363
1.66051
1.66418
1.66433
1.66063
1.6528
1.64054
1.62362
1.60181
1.57497
1.54301
1.50591
1.46377
1.41676
1.36519
1.30948
1.25015
1.18787
1.12342
1.05765
0.991513
0.925978
0.861999
0.800408
0.742214
0.689506
0.642184
0.600218
0.56353
0.532074
0.50594
0.484622
0.467775
0.45388
0.443216
0.435359
0.429797
0.42611
0.423957
0.423006
0.422957
0.423423
0.424725
0.426033
0.42819
0.430795
0.43454
0.437066
0.439072
0.441406
0.443742
0.445947
0.447962
0.449748
0.451272
0.452504
0.453418
0.453991
0.454203
0.454038
0.453482
0.452525
0.451162
0.449394
0.447231
0.444693
0.441794
0.438417
0.434148
0.43145
0.426767
0.421949
0.417162
0.412344
0.406572
0.399533
0.394045
0.38751
0.381768
0.376468
0.36938
0.363471
0.358272
0.351443
0.346736
0.341063
0.335285
0.329561
0.322826
0.31801
0.314272
0.309525
0.304646
0.298853
0.294412
0.290928
0.286343
0.281513
0.277428
0.273549
0.268683
0.262324
0.254634
0.245845
0.236023
0.209377
0.273385
0.315348
0.343742
0.364082
0.379464
0.391947
0.403176
0.414654
0.427167
0.44105
0.457576
0.477724
0.501998
0.530158
0.561131
0.593336
0.625057
0.654794
0.681431
0.70426
0.723057
0.73808
0.749954
0.759531
0.767761
0.775589
0.783876
0.793339
0.804508
0.817711
0.83308
0.850575
0.870018
0.891137
0.913599
0.937048
0.96114
0.985557
1.01003
1.03435
1.05835
1.08195
1.10509
1.12779
1.15007
1.17199
1.19366
1.21514
1.23656
1.25799
1.27953
1.30126
1.32325
1.34556
1.36822
1.39126
1.4147
1.43852
1.4627
1.48727
1.51218
1.53736
1.56273
1.58816
1.61352
1.63865
1.66338
1.68752
1.71084
1.73311
1.75409
1.77348
1.791
1.80632
1.81913
1.82907
1.83579
1.83893
1.83814
1.83305
1.82333
1.80867
1.78879
1.76348
1.73258
1.696
1.65377
1.606
1.55293
1.49494
1.43254
1.36637
1.29722
1.22598
1.15367
1.08135
1.0101
0.940979
0.875094
0.814791
0.760188
0.711408
0.668485
0.631314
0.600045
0.574167
0.553139
0.536223
0.522995
0.512973
0.505639
0.500528
0.497231
0.495398
0.49471
0.49488
0.495851
0.497304
0.49928
0.501621
0.504372
0.5069
0.5093
0.51174
0.514125
0.516377
0.51844
0.520269
0.521827
0.523078
0.523991
0.524539
0.524699
0.52445
0.523775
0.522661
0.5211
0.51909
0.516631
0.51373
0.510383
0.506554
0.502243
0.498068
0.493065
0.487688
0.482057
0.476118
0.469651
0.462636
0.455862
0.448714
0.441709
0.434671
0.427102
0.419803
0.41267
0.40523
0.398457
0.391362
0.384265
0.37723
0.370104
0.363816
0.35799
0.35183
0.345681
0.339281
0.333484
0.328146
0.32268
0.316828
0.311072
0.304932
0.298542
0.29122
0.282865
0.273521
0.263361
0.259121
0.333188
0.381455
0.414307
0.438103
0.456396
0.471586
0.485577
0.499494
0.513765
0.529723
0.548374
0.570281
0.595436
0.6232
0.652383
0.681495
0.709075
0.733958
0.755433
0.773299
0.787845
0.79976
0.809981
0.819532
0.829382
0.840347
0.853031
0.867806
0.884819
0.904024
0.925219
0.948094
0.972277
0.99737
1.02298
1.04876
1.07439
1.09962
1.12427
1.1482
1.17136
1.19374
1.21537
1.23632
1.2567
1.27663
1.29623
1.31565
1.33501
1.35444
1.37406
1.39398
1.41428
1.43503
1.45628
1.47808
1.50042
1.52331
1.54673
1.57071
1.5952
1.62015
1.64545
1.671
1.69668
1.72232
1.74777
1.77283
1.79729
1.82092
1.84347
1.86468
1.88423
1.90183
1.91714
1.9298
1.93946
1.94574
1.94825
1.94661
1.94044
1.92939
1.91311
1.89132
1.86379
1.83033
1.79088
1.74545
1.69418
1.63736
1.57539
1.50884
1.43845
1.36508
1.28973
1.21352
1.13762
1.06319
0.991689
0.92545
0.864819
0.810113
0.761524
0.719065
0.68285
0.652533
0.627571
0.60736
0.591349
0.578979
0.569693
0.56298
0.558383
0.555503
0.554006
0.553606
0.554101
0.555258
0.55694
0.559005
0.561371
0.563809
0.566273
0.568751
0.571178
0.573488
0.575623
0.577533
0.579176
0.58051
0.581499
0.582112
0.582321
0.5821
0.581429
0.580292
0.578676
0.576575
0.573983
0.570902
0.567328
0.563254
0.558728
0.553914
0.548546
0.542742
0.536559
0.52998
0.522965
0.515552
0.507985
0.500157
0.492224
0.484132
0.475802
0.46747
0.459147
0.450789
0.442637
0.434397
0.426204
0.418111
0.410168
0.402639
0.395378
0.388084
0.380863
0.373634
0.366729
0.360079
0.353439
0.346593
0.339633
0.332353
0.324864
0.316717
0.307766
0.297988
0.287502
0.309263
0.392428
0.447842
0.486034
0.513923
0.53544
0.553246
0.568759
0.582876
0.597192
0.612924
0.630869
0.651341
0.674114
0.698465
0.723324
0.747509
0.769981
0.790047
0.807459
0.822417
0.835496
0.847513
0.859371
0.871918
0.885844
0.901622
0.919495
0.939498
0.96149
0.985199
1.01027
1.03631
1.06292
1.08971
1.11634
1.1425
1.16797
1.19256
1.21617
1.23874
1.26026
1.28079
1.30041
1.31923
1.33738
1.35502
1.37231
1.38939
1.40643
1.42357
1.44094
1.45866
1.47683
1.49554
1.51484
1.53477
1.55535
1.57659
1.59845
1.62098
1.64415
1.6679
1.69215
1.7168
1.74173
1.76681
1.79188
1.81677
1.8413
1.86524
1.88838
1.91045
1.9312
1.95032
1.9675
1.98242
1.99471
2.00401
2.00993
2.01207
2.01004
2.00343
1.99186
1.97498
1.95245
1.92401
1.88946
1.84871
1.80175
1.74871
1.68989
1.62571
1.55679
1.48392
1.40804
1.33025
1.25175
1.17381
1.09836
1.0275
0.961837
0.901901
0.848092
0.800615
0.759538
0.724775
0.695825
0.672131
0.653113
0.638178
0.626733
0.618225
0.612152
0.608076
0.605619
0.604467
0.604366
0.605074
0.606402
0.608195
0.61033
0.61267
0.615126
0.617636
0.620126
0.622528
0.624779
0.626825
0.628615
0.630104
0.631249
0.632013
0.632363
0.632271
0.631711
0.630662
0.629108
0.627037
0.624441
0.621315
0.617657
0.613472
0.608781
0.603658
0.598025
0.591912
0.585345
0.578329
0.570871
0.563015
0.554858
0.546411
0.53774
0.528852
0.51976
0.51056
0.501294
0.492003
0.482762
0.473503
0.464302
0.45521
0.446293
0.43763
0.429173
0.420811
0.412569
0.404422
0.396492
0.388733
0.381012
0.373207
0.365278
0.357129
0.348757
0.339888
0.330392
0.320233
0.309435
0.356535
0.449071
0.511996
0.555949
0.588223
0.613045
0.63234
0.64783
0.661452
0.674719
0.688762
0.704299
0.72159
0.74044
0.760277
0.780316
0.799762
0.818004
0.834745
0.850044
0.864282
0.878063
0.892082
0.90701
0.923387
0.94157
0.961719
0.983807
1.00766
1.03299
1.05943
1.08662
1.11414
1.14163
1.16876
1.19524
1.22084
1.24537
1.26873
1.29085
1.31171
1.33136
1.34988
1.36737
1.38396
1.39982
1.41511
1.42999
1.44464
1.45923
1.47391
1.48882
1.50409
1.51983
1.53612
1.55305
1.57065
1.58896
1.60797
1.62767
1.64809
1.66922
1.69101
1.71339
1.73628
1.75957
1.78316
1.80691
1.83066
1.85427
1.87755
1.90031
1.92232
1.94337
1.96319
1.98151
1.99803
2.01243
2.02436
2.03347
2.03936
2.04162
2.03983
2.03358
2.02244
2.006
1.9839
1.95581
1.92149
1.88077
1.83362
1.78015
1.72061
1.65546
1.58535
1.51113
1.43382
1.35464
1.27488
1.19705
1.12284
1.05312
0.988673
0.930131
0.877896
0.832143
0.792968
0.759969
0.73265
0.710447
0.692755
0.678962
0.668482
0.660774
0.655356
0.651814
0.649795
0.649002
0.649181
0.650115
0.651626
0.653569
0.655814
0.658259
0.660813
0.663394
0.665928
0.668344
0.67058
0.67258
0.67429
0.675664
0.676659
0.677235
0.67736
0.677003
0.676139
0.674746
0.672809
0.670315
0.667256
0.663629
0.659435
0.654683
0.649424
0.643632
0.637318
0.630492
0.623165
0.615361
0.607117
0.59849
0.589513
0.580234
0.570682
0.560894
0.550928
0.540836
0.53067
0.520479
0.510272
0.500106
0.490032
0.480105
0.470364
0.460802
0.451387
0.442124
0.433006
0.424071
0.415284
0.406562
0.397831
0.389026
0.380078
0.370929
0.361403
0.351392
0.340856
0.329771
0.399485
0.500569
0.570649
0.620283
0.656768
0.683563
0.703637
0.719308
0.732391
0.744337
0.75626
0.76891
0.782644
0.79745
0.813029
0.828935
0.844736
0.860149
0.875126
0.889855
0.904715
0.920182
0.936733
0.954765
0.974533
0.996137
1.01952
1.0445
1.07079
1.09806
1.12594
1.15403
1.182
1.20951
1.23627
1.26204
1.28664
1.30994
1.33185
1.35235
1.37146
1.38922
1.40573
1.42113
1.43555
1.44915
1.46211
1.47462
1.48683
1.49893
1.51108
1.52343
1.53611
1.54923
1.5629
1.57719
1.59215
1.60781
1.6242
1.6413
1.65914
1.6777
1.69695
1.71684
1.73729
1.75824
1.77957
1.80119
1.82297
1.8448
1.86652
1.88798
1.90902
1.92944
1.94906
1.96764
1.98495
2.00071
2.01462
2.02636
2.03557
2.04186
2.0448
2.04397
2.03888
2.02907
2.01407
1.99343
1.96676
1.93372
1.89408
1.84773
1.79474
1.73534
1.67001
1.59943
1.52453
1.44647
1.36666
1.28799
1.21172
1.139
1.07087
1.00819
0.951594
0.901429
0.857959
0.820924
0.789915
0.764411
0.743823
0.727534
0.714935
0.705454
0.698573
0.693838
0.69086
0.689306
0.688898
0.689401
0.690613
0.692368
0.694526
0.696966
0.699584
0.702287
0.70499
0.707615
0.710093
0.712358
0.714353
0.716022
0.717318
0.718195
0.718615
0.718543
0.717948
0.716804
0.715092
0.712793
0.709898
0.706398
0.702292
0.697583
0.692302
0.686453
0.680034
0.673052
0.66552
0.657461
0.64891
0.639907
0.630493
0.620708
0.61059
0.60018
0.589531
0.578694
0.567724
0.556669
0.545567
0.534472
0.523434
0.512504
0.501717
0.49109
0.480625
0.470329
0.460204
0.450259
0.440468
0.430778
0.421137
0.411483
0.401754
0.391874
0.381721
0.371206
0.360283
0.348911
0.436598
0.544643
0.620849
0.674873
0.714006
0.742868
0.764416
0.780822
0.793827
0.804858
0.815059
0.825271
0.83602
0.847535
0.859813
0.872723
0.886122
0.899948
0.914272
0.929294
0.945297
0.962586
0.981422
1.00197
1.02429
1.04829
1.0738
1.10055
1.12822
1.15646
1.1849
1.2132
1.24102
1.26808
1.29413
1.31896
1.34242
1.36441
1.38487
1.40378
1.42119
1.43716
1.4518
1.46522
1.47758
1.48905
1.49981
1.51003
1.51989
1.52957
1.53923
1.54903
1.5591
1.56956
1.58052
1.59205
1.60422
1.61707
1.63061
1.64486
1.65982
1.67548
1.69182
1.70879
1.72634
1.74441
1.76291
1.78178
1.80091
1.82022
1.83961
1.85896
1.87815
1.89707
1.91556
1.93347
1.95062
1.96681
1.9818
1.99532
2.00707
2.01671
2.02383
2.02801
2.02876
2.02555
2.01785
2.0051
1.98675
1.9623
1.9313
1.89343
1.84849
1.79651
1.7377
1.67257
1.60186
1.52661
1.44875
1.37068
1.29368
1.2191
1.14821
1.08213
1.02171
0.967513
0.919978
0.879018
0.844341
0.8155
0.791943
0.773063
0.758241
0.746883
0.738442
0.732429
0.728418
0.726047
0.725008
0.725044
0.725938
0.7275
0.729572
0.732018
0.734719
0.73757
0.740476
0.74335
0.746114
0.748696
0.751028
0.753052
0.754711
0.755955
0.756739
0.757023
0.756772
0.755955
0.754547
0.752527
0.749879
0.746594
0.742665
0.738093
0.732886
0.727069
0.720637
0.713592
0.705947
0.697722
0.688949
0.679662
0.669898
0.659698
0.649101
0.63815
0.626895
0.615389
0.603685
0.591835
0.579891
0.567905
0.555932
0.544022
0.532217
0.520548
0.509036
0.497698
0.486542
0.475576
0.464781
0.454126
0.443572
0.433066
0.422552
0.411955
0.401182
0.390156
0.378827
0.367146
0.466831
0.579177
0.658858
0.716103
0.758324
0.789829
0.81344
0.831235
0.84489
0.855814
0.865182
0.873934
0.882764
0.89213
0.902288
0.913366
0.925434
0.938567
0.952885
0.968545
0.985722
1.00456
1.02516
1.04752
1.07156
1.09709
1.12387
1.15159
1.17991
1.2085
1.237
1.26508
1.29246
1.31886
1.34406
1.36789
1.39022
1.41095
1.43005
1.44751
1.46338
1.47772
1.49064
1.50228
1.51277
1.5223
1.53103
1.53914
1.54681
1.55422
1.56154
1.56891
1.57648
1.58436
1.59267
1.60149
1.61087
1.62088
1.63154
1.64286
1.65483
1.66745
1.6807
1.69454
1.70892
1.72379
1.7391
1.75478
1.77078
1.78703
1.80347
1.82003
1.83665
1.85324
1.86974
1.88604
1.90205
1.91764
1.93264
1.94688
1.96012
1.97208
1.98243
1.99076
1.99661
1.99945
1.99868
1.99367
1.98375
1.96824
1.94651
1.91797
1.8822
1.83893
1.78811
1.72999
1.66512
1.59441
1.52022
1.44423
1.36787
1.29266
1.22007
1.15144
1.08787
1.03014
0.978892
0.934228
0.896007
0.86388
0.837354
0.815848
0.79875
0.785453
0.775386
0.768031
0.762935
0.759702
0.757999
0.757543
0.758096
0.759454
0.76144
0.763899
0.766699
0.769721
0.772858
0.776015
0.779104
0.782044
0.784762
0.787189
0.789265
0.790933
0.792141
0.792844
0.793003
0.792581
0.791548
0.78988
0.787557
0.784564
0.780891
0.776535
0.771493
0.765794
0.759434
0.752413
0.744741
0.736437
0.727527
0.718042
0.708016
0.697487
0.686496
0.675086
0.663305
0.651204
0.638838
0.626263
0.613533
0.600706
0.587838
0.574983
0.562191
0.549503
0.536954
0.524572
0.512375
0.500375
0.488568
0.476936
0.465455
0.454082
0.442767
0.431446
0.420043
0.408489
0.396728
0.384704
0.486015
0.601212
0.684228
0.744763
0.790126
0.82451
0.85062
0.870431
0.885539
0.89731
0.906923
0.915384
0.923513
0.931941
0.941128
0.951393
0.962958
0.975991
0.990631
1.00699
1.02516
1.04518
1.06701
1.09056
1.11566
1.14207
1.1695
1.19765
1.22617
1.25473
1.283
1.31067
1.33746
1.36315
1.38751
1.41039
1.43167
1.45127
1.46916
1.48535
1.49986
1.51279
1.52422
1.5343
1.54317
1.55098
1.55792
1.56416
1.56988
1.57526
1.58045
1.58561
1.59088
1.59639
1.60223
1.60849
1.61525
1.62255
1.63041
1.63887
1.64792
1.65753
1.66768
1.67834
1.68947
1.70102
1.71297
1.72525
1.73784
1.75069
1.76377
1.77706
1.79053
1.80416
1.81792
1.83179
1.84574
1.85971
1.87364
1.88742
1.90093
1.91397
1.92628
1.93753
1.94733
1.95516
1.96044
1.96247
1.9605
1.95373
1.94133
1.92249
1.89652
1.86284
1.82112
1.77129
1.71362
1.64926
1.58017
1.50769
1.43334
1.35876
1.2856
1.21539
1.14947
1.08885
1.03435
0.986313
0.944774
0.909503
0.880086
0.855989
0.836618
0.821363
0.809641
0.800913
0.794697
0.790574
0.788183
0.787218
0.787417
0.788559
0.790452
0.792931
0.79584
0.799049
0.80244
0.805907
0.809352
0.812686
0.815828
0.818702
0.82124
0.823379
0.825063
0.82624
0.826864
0.826897
0.826302
0.82505
0.823119
0.820488
0.817145
0.813079
0.808285
0.802781
0.796573
0.789657
0.782042
0.773741
0.764778
0.755179
0.744977
0.734207
0.722908
0.711122
0.698895
0.68628
0.673329
0.660101
0.646651
0.633041
0.61933
0.605577
0.591837
0.578161
0.564595
0.551178
0.537939
0.5249
0.512071
0.499449
0.487022
0.47476
0.462624
0.450559
0.438503
0.426392
0.414167
0.401762
0.496687
0.613709
0.699071
0.762276
0.810499
0.847782
0.876681
0.899041
0.916346
0.929883
0.940795
0.950101
0.958685
0.96729
0.976508
0.986794
0.998481
1.0118
1.02693
1.04394
1.06287
1.0837
1.10632
1.13058
1.15625
1.18309
1.21078
1.23901
1.26744
1.29576
1.32366
1.35083
1.37703
1.40201
1.4256
1.44764
1.46801
1.48666
1.50353
1.51865
1.53204
1.54379
1.55399
1.56277
1.57027
1.57665
1.58207
1.58673
1.59078
1.5944
1.59775
1.60099
1.60424
1.60764
1.61128
1.61525
1.61962
1.62443
1.62972
1.63551
1.64179
1.64854
1.65572
1.66331
1.67126
1.67955
1.68813
1.69698
1.70608
1.7154
1.72493
1.73469
1.74467
1.7549
1.76539
1.77619
1.78732
1.79881
1.81066
1.82288
1.83542
1.8482
1.86107
1.8738
1.88608
1.89749
1.90746
1.91534
1.92033
1.92152
1.91796
1.90863
1.89257
1.8689
1.83697
1.79638
1.74712
1.69053
1.62778
1.56014
1.48914
1.41648
1.34392
1.27318
1.20579
1.14303
1.08585
1.03489
0.990361
0.952179
0.920033
0.893449
0.871867
0.854688
0.841323
0.83122
0.823877
0.818852
0.815762
0.814277
0.814117
0.815041
0.816839
0.819331
0.822354
0.825764
0.829425
0.833223
0.837048
0.840804
0.8444
0.847755
0.850792
0.853443
0.855644
0.85734
0.858479
0.859016
0.858913
0.858135
0.856654
0.854448
0.851498
0.847793
0.843321
0.838084
0.832102
0.825369
0.817888
0.80967
0.800736
0.791107
0.780814
0.769889
0.758368
0.746292
0.733706
0.72066
0.707207
0.693404
0.679309
0.664985
0.650495
0.635899
0.621261
0.606639
0.592088
0.577656
0.563387
0.549313
0.535458
0.521834
0.508443
0.49527
0.482287
0.469452
0.456713
0.444012
0.431285
0.41846
0.500753
0.618275
0.704973
0.770178
0.8209
0.861001
0.892867
0.918184
0.938299
0.954382
0.967498
0.978625
0.988654
0.998372
1.00845
1.01942
1.0317
1.04559
1.06128
1.07886
1.09835
1.1197
1.14277
1.16738
1.19329
1.22023
1.24791
1.276
1.3042
1.33217
1.35963
1.3863
1.41193
1.43629
1.45922
1.48055
1.50019
1.51806
1.53413
1.5484
1.56092
1.57174
1.58096
1.58872
1.59513
1.60036
1.60458
1.60794
1.61063
1.61281
1.61464
1.61626
1.61781
1.61941
1.62116
1.62314
1.62541
1.62803
1.63101
1.63438
1.63813
1.64224
1.64668
1.65139
1.65635
1.66153
1.6669
1.67243
1.67812
1.68395
1.68994
1.69611
1.70249
1.70913
1.71608
1.72343
1.73124
1.73961
1.74862
1.75834
1.76883
1.78012
1.79217
1.80488
1.81806
1.83139
1.84443
1.85657
1.86706
1.87496
1.87921
1.87865
1.87207
1.85834
1.83642
1.80556
1.76576
1.71781
1.66247
1.60086
1.53445
1.46494
1.39417
1.32397
1.25608
1.19198
1.13283
1.07949
1.0324
0.99163
0.956995
0.9281
0.904431
0.885412
0.87046
0.859017
0.850566
0.844649
0.840864
0.838862
0.838342
0.839048
0.840753
0.843262
0.846399
0.850009
0.853949
0.858092
0.862315
0.866513
0.870587
0.874448
0.878013
0.881207
0.88396
0.886211
0.887904
0.88899
0.889423
0.889167
0.888188
0.886461
0.883963
0.880677
0.87659
0.871693
0.866007
0.859528
0.852256
0.844198
0.835371
0.825795
0.815494
0.804499
0.792843
0.780566
0.767709
0.75432
0.740451
0.726158
0.711501
0.696542
0.681345
0.665976
0.650501
0.634986
0.619494
0.604082
0.588806
0.57371
0.558834
0.544204
0.529836
0.51573
0.501874
0.488239
0.474783
0.461453
0.448186
0.434903
0.49923
0.616225
0.703449
0.770092
0.82298
0.865783
0.900705
0.92926
0.952635
0.971859
0.987879
1.00159
1.01384
1.02541
1.03699
1.04917
1.06241
1.07708
1.09339
1.11148
1.13137
1.15301
1.17627
1.20097
1.22687
1.25371
1.2812
1.30902
1.33687
1.36444
1.39146
1.41765
1.44278
1.46662
1.48901
1.50979
1.52887
1.54616
1.56163
1.57528
1.58715
1.5973
1.60581
1.61281
1.61842
1.62279
1.62608
1.62846
1.63009
1.63114
1.63175
1.63208
1.63224
1.63236
1.63253
1.63282
1.6333
1.63401
1.63497
1.63619
1.63769
1.63942
1.64134
1.64343
1.64564
1.64794
1.65032
1.65276
1.65524
1.65778
1.66039
1.66311
1.66597
1.66906
1.67244
1.67621
1.68049
1.6854
1.69109
1.69769
1.70533
1.71414
1.72419
1.73552
1.74807
1.76167
1.77602
1.79064
1.80486
1.8178
1.82838
1.83535
1.83733
1.83291
1.82076
1.79978
1.76986
1.73109
1.68394
1.62935
1.56863
1.50341
1.43556
1.367
1.29961
1.23505
1.17468
1.1196
1.07046
1.02752
0.990714
0.959754
0.934183
0.913463
0.897024
0.884311
0.874802
0.868027
0.863568
0.861062
0.860192
0.860685
0.862301
0.864831
0.868086
0.8719
0.876121
0.880609
0.885236
0.889889
0.894457
0.898842
0.902955
0.906715
0.910046
0.912881
0.915159
0.916826
0.917834
0.91814
0.917707
0.916505
0.914509
0.911697
0.908052
0.90356
0.898234
0.892075
0.88508
0.877256
0.868612
0.859166
0.848939
0.837959
0.826255
0.813864
0.800826
0.787185
0.772992
0.758301
0.74317
0.727661
0.711841
0.695776
0.679537
0.663195
0.646818
0.630474
0.614228
0.598137
0.582254
0.566621
0.551269
0.536216
0.521463
0.506997
0.492789
0.47879
0.464941
0.451168
0.492995
0.60877
0.695959
0.76364
0.818438
0.863831
0.901838
0.933795
0.96072
0.983482
1.00289
1.01973
1.03476
1.04872
1.06229
1.07606
1.09055
1.10616
1.12315
1.1417
1.16187
1.18364
1.20691
1.23151
1.25722
1.28379
1.31095
1.3384
1.36585
1.393
1.41959
1.44535
1.47004
1.49346
1.51543
1.53581
1.55448
1.57138
1.58645
1.5997
1.61116
1.62087
1.62891
1.63541
1.64048
1.64426
1.6469
1.64857
1.64943
1.64962
1.6493
1.64861
1.64767
1.6466
1.64547
1.64436
1.64332
1.64239
1.6416
1.64095
1.64043
1.64003
1.6397
1.63941
1.63912
1.63882
1.63847
1.63808
1.63764
1.63716
1.63666
1.63619
1.63578
1.63553
1.63551
1.63584
1.63663
1.63805
1.64026
1.64343
1.64777
1.65346
1.66068
1.66957
1.68022
1.6926
1.70659
1.72188
1.73794
1.75403
1.76913
1.78198
1.7911
1.7949
1.79173
1.78038
1.76015
1.73074
1.69228
1.64542
1.59127
1.53136
1.46748
1.4016
1.3357
1.27159
1.21082
1.15471
1.10411
1.05948
1.0209
0.988188
0.960961
0.938728
0.920948
0.907073
0.896586
0.88901
0.883919
0.880936
0.879734
0.880026
0.881561
0.884116
0.887492
0.891513
0.896015
0.90085
0.905883
0.91099
0.916054
0.920971
0.925644
0.929986
0.933912
0.93735
0.940237
0.942512
0.944123
0.945023
0.945171
0.944534
0.943082
0.94079
0.937638
0.933609
0.928699
0.922922
0.91627
0.908746
0.900357
0.891116
0.881043
0.870159
0.858493
0.846076
0.832947
0.819147
0.804723
0.789727
0.774216
0.758252
0.741899
0.725226
0.708306
0.691212
0.674019
0.656803
0.639637
0.622589
0.605726
0.589105
0.572772
0.556762
0.541094
0.52577
0.510774
0.496067
0.481593
0.467315
0.482427
0.596643
0.683509
0.752043
0.808659
0.856636
0.897812
0.933344
0.964072
0.990699
1.01388
1.03427
1.05253
1.06932
1.08527
1.10098
1.11697
1.13367
1.15141
1.17042
1.1908
1.21259
1.23572
1.26005
1.28542
1.31158
1.33829
1.36527
1.39225
1.41895
1.44509
1.47044
1.49475
1.51782
1.53948
1.55957
1.57798
1.59464
1.60949
1.62252
1.63375
1.64323
1.65102
1.65724
1.66198
1.6654
1.66762
1.66881
1.66911
1.66868
1.66765
1.66617
1.66434
1.66227
1.66005
1.65774
1.65538
1.65301
1.65065
1.64829
1.64594
1.64358
1.64118
1.63869
1.63611
1.63341
1.63058
1.6276
1.6245
1.62127
1.61795
1.61458
1.61121
1.60792
1.60478
1.60192
1.59945
1.59753
1.59634
1.59608
1.59696
1.59923
1.60312
1.60887
1.61668
1.62667
1.63889
1.65322
1.66933
1.68666
1.70433
1.72119
1.73576
1.74631
1.75104
1.74846
1.73747
1.71735
1.68785
1.64928
1.60247
1.54877
1.48987
1.42772
1.36433
1.30163
1.24131
1.1849
1.13348
1.08768
1.04776
1.01363
0.985023
0.961489
0.942528
0.927616
0.916241
0.90793
0.902252
0.898824
0.897311
0.897415
0.898874
0.901457
0.904956
0.909181
0.913964
0.919146
0.924584
0.930145
0.935708
0.941159
0.946396
0.951325
0.955856
0.959913
0.963426
0.966329
0.968567
0.970086
0.970845
0.970804
0.969931
0.968198
0.96558
0.96206
0.95762
0.952276
0.946022
0.938856
0.930783
0.921812
0.911959
0.901244
0.889689
0.877325
0.864185
0.850307
0.835737
0.820522
0.804717
0.788382
0.771581
0.754382
0.736859
0.719087
0.701146
0.683117
0.66508
0.647115
0.6293
0.611705
0.594394
0.577419
0.560813
0.544599
0.528777
0.513316
0.498194
0.483363
0.469617
0.582143
0.668547
0.73778
0.79603
0.846388