/*--------------------------------*- C++ -*----------------------------------*\
  =========                 |
  \\      /  F ield         | OpenFOAM: The Open Source CFD Toolbox
   \\    /   O peration     | Website:  https://openfoam.org
    \\  /    A nd           | Version:  9
     \\/     M anipulation  |
\*---------------------------------------------------------------------------*/
FoamFile
{
    format      ascii;
    class       volScalarField;
    location    "0.25";
    object      nut;
}
// * * * * * * * * * * * * * * * * * * * * * * * * * * * * * * * * * * * * * //

dimensions      [0 2 -1 0 0 0 0];

internalField   nonuniform List<scalar> 
12225
(
3.04956e-05
1.83724e-05
1.19031e-05
8.50318e-06
6.66547e-06
5.59227e-06
4.88807e-06
4.36848e-06
3.95111e-06
3.59839e-06
3.29127e-06
3.01894e-06
2.77539e-06
2.55937e-06
2.37885e-06
2.28101e-06
2.55103e-06
7.59826e-06
0.000163162
0.00010236
8.24857e-05
7.33291e-05
6.81761e-05
6.45894e-05
6.15373e-05
5.86839e-05
5.59678e-05
5.33937e-05
5.09684e-05
4.87016e-05
4.66232e-05
4.48144e-05
4.34909e-05
4.33319e-05
4.54628e-05
5.2787e-05
0.000339114
0.000220967
0.000179151
0.000158062
0.000145307
0.000136431
0.000129361
0.000123168
0.000117489
0.000112195
0.000107245
0.00010265
9.84872e-05
9.49441e-05
9.24536e-05
9.19492e-05
9.33668e-05
9.94421e-05
0.000503384
0.000350037
0.000285644
0.000250707
0.000228691
0.000213223
0.00020121
0.000191085
0.000182078
0.000173818
0.000166132
0.000158974
0.000152416
0.000146698
0.000142324
0.000139966
0.000138321
0.000140756
0.0006286
0.000471765
0.000392028
0.000345004
0.000314025
0.000291807
0.000274591
0.000260319
0.00024786
0.000236591
0.000226178
0.000216474
0.000207501
0.000199479
0.000192845
0.000187798
0.000182279
0.000179852
0.000714103
0.000575826
0.00049103
0.000436124
0.000398006
0.000369846
0.000347777
0.000329517
0.000313709
0.000299539
0.000286525
0.000274416
0.000263157
0.000252893
0.000243893
0.000235885
0.000226465
0.000218927
0.000768832
0.000658353
0.000577744
0.00052014
0.000477704
0.000445177
0.000419158
0.000397456
0.000378662
0.000361869
0.000346502
0.000332226
0.000318904
0.00030658
0.000295319
0.000284466
0.000271551
0.00025926
0.00080247
0.00071997
0.000649666
0.000594193
0.000550621
0.000515775
0.000487139
0.000462882
0.000441723
0.000422775
0.00040544
0.000389335
0.000374264
0.000360164
0.000346909
0.00033359
0.000317835
0.000301558
0.000822608
0.000763748
0.000706421
0.000656656
0.000614888
0.000579897
0.000550209
0.000524531
0.000501845
0.000481388
0.000462608
0.000445126
0.000428708
0.000413213
0.000398363
0.000383127
0.000365326
0.00034609
0.000834462
0.000793597
0.000749213
0.000707136
0.000669415
0.000636239
0.000607079
0.000581219
0.000557982
0.000536799
0.000517219
0.000498911
0.000481642
0.000465221
0.000449279
0.000432775
0.00041378
0.000392747
0.000841365
0.000813264
0.000780162
0.000746273
0.000713927
0.000684055
0.000656802
0.000631955
0.000609174
0.000588112
0.000568456
0.000549954
0.000532404
0.000515599
0.000499145
0.00048207
0.000462723
0.000441059
0.000845035
0.000824812
0.000799909
0.000772964
0.000745921
0.000719875
0.0006953
0.000672296
0.000650779
0.000630587
0.000611539
0.000593468
0.000576218
0.000559599
0.00054323
0.000526249
0.00050725
0.000485873
0.000847296
0.000832476
0.00081393
0.000793035
0.000771141
0.00074922
0.00072785
0.000707313
0.000687705
0.000669015
0.000651183
0.000634129
0.000617754
0.000601904
0.00058625
0.000570082
0.000552269
0.000532303
0.000848786
0.00083787
0.000824463
0.000809032
0.00079229
0.000774904
0.000757383
0.000740059
0.00072313
0.000706697
0.000690801
0.000675442
0.000660586
0.000646132
0.000631829
0.000617143
0.000601231
0.000583553
0.000849687
0.000841322
0.000831641
0.000820614
0.000808464
0.000795517
0.000782095
0.000768466
0.000754837
0.000741353
0.000728113
0.000715177
0.000702564
0.000690229
0.000678012
0.000665556
0.000652295
0.000637771
0.000850183
0.000843311
0.000836022
0.000828117
0.000819556
0.000810407
0.000800798
0.000790877
0.000780787
0.000770656
0.000760588
0.000750664
0.000740931
0.000731388
0.000721954
0.000712427
0.000702474
0.000691785
0.000850425
0.000844326
0.000838375
0.00083238
0.000826221
0.000819845
0.000813257
0.0008065
0.00079964
0.000792755
0.000785919
0.000779199
0.000772642
0.000766267
0.000760041
0.000753871
0.00074759
0.000741032
0.000850519
0.000844743
0.000839398
0.000834342
0.000829465
0.000824698
0.000820008
0.000815394
0.00081088
0.000806507
0.000802319
0.00079836
0.000794665
0.000791248
0.000788099
0.000785175
0.000782401
0.000779693
0.000850505
0.000844721
0.000839401
0.000834433
0.000829746
0.000825306
0.000821114
0.000817193
0.000813581
0.000810327
0.000807477
0.000805069
0.000803134
0.000801682
0.000800706
0.000800176
0.000800043
0.000800237
0.000850309
0.000843954
0.00083771
0.000831504
0.000825364
0.00081938
0.000813671
0.000808359
0.000803559
0.000799365
0.00079585
0.000793066
0.00079104
0.000789776
0.000789258
0.000789444
0.000790269
0.000791633
0.000849759
0.000841826
0.000833184
0.000823998
0.0008146
0.00080535
0.000796563
0.000788485
0.000781286
0.000775082
0.000769938
0.000765883
0.000762917
0.000761015
0.000760132
0.000760201
0.000761131
0.000762782
0.000848251
0.000836323
0.000822261
0.000807111
0.000791906
0.000777416
0.00076413
0.000752317
0.000742093
0.000733486
0.000726466
0.000720975
0.000716937
0.000714264
0.00071286
0.000712618
0.000713412
0.00071506
0.000844348
0.000823382
0.000798923
0.000774049
0.000750714
0.000729818
0.000711682
0.000696282
0.00068345
0.000672971
0.000664628
0.000658214
0.000653545
0.000650455
0.000648791
0.000648405
0.000649141
0.000650787
0.000834733
0.000795766
0.000754795
0.000717342
0.000685287
0.000658812
0.000637245
0.000619803
0.000605832
0.000594785
0.000586221
0.000579788
0.000575205
0.000572243
0.000570711
0.000570441
0.000571266
0.000572964
0.000812233
0.000742553
0.000681143
0.000632174
0.000594251
0.000565143
0.000542927
0.000525938
0.000512816
0.000502746
0.000495139
0.000489562
0.000485693
0.000483289
0.000482155
0.000482134
0.000483072
0.000484766
0.000762863
0.000651326
0.000573131
0.000519311
0.000481509
0.000454441
0.000434776
0.000420418
0.000409866
0.000401957
0.0003961
0.000391882
0.000389016
0.000387295
0.000386564
0.000386698
0.000387583
0.00038906
0.000664044
0.000515259
0.000434955
0.000386824
0.000355776
0.00033487
0.000320346
0.000310036
0.000302734
0.000297427
0.000293499
0.000290651
0.000288687
0.000287477
0.000286928
0.000286966
0.000287525
0.000288504
0.000492872
0.000344222
0.000281988
0.000248456
0.00022823
0.000215347
0.000206745
0.000200741
0.000196444
0.00019342
0.000191079
0.000189269
0.00018791
0.000186954
0.000186369
0.000186128
0.000186205
0.000186551
0.000262123
0.000171166
0.000137784
0.000120583
0.00011067
0.000104673
0.000100777
9.80238e-05
9.59649e-05
9.44366e-05
9.31931e-05
9.2142e-05
9.12821e-05
9.06092e-05
9.01167e-05
8.97957e-05
8.96356e-05
8.96212e-05
5.96531e-05
4.25934e-05
3.14332e-05
2.41078e-05
1.92832e-05
1.60837e-05
1.39287e-05
1.24379e-05
1.13737e-05
1.05946e-05
1.00269e-05
9.60665e-06
9.29115e-06
9.05445e-06
8.87971e-06
8.75534e-06
8.67275e-06
8.62533e-06
2.29948e-05
0.000160585
0.000187437
0.000204408
0.000214276
0.00021785
0.000219433
0.000219406
0.000217784
0.000214244
0.000216696
0.00021777
4.68055e-05
4.51436e-05
0.00020753
4.48565e-05
4.43533e-05
4.62071e-05
4.70135e-05
4.76914e-05
4.85494e-05
4.94647e-05
5.03067e-05
5.1009e-05
5.15677e-05
5.20553e-05
5.29303e-05
5.40713e-05
5.54137e-05
5.69399e-05
5.86407e-05
6.04936e-05
6.24643e-05
6.45124e-05
6.65986e-05
6.86879e-05
7.07519e-05
7.27689e-05
7.47235e-05
7.66057e-05
7.84094e-05
8.01319e-05
8.17726e-05
8.33327e-05
8.48143e-05
8.62203e-05
8.75538e-05
8.88181e-05
9.00167e-05
9.11527e-05
9.22293e-05
9.32496e-05
9.42166e-05
9.51335e-05
9.60037e-05
9.68312e-05
9.76204e-05
9.83773e-05
9.91093e-05
9.9826e-05
0.000100528
0.000101183
0.000101792
0.000102358
0.00010288
0.000103355
0.000103783
0.00010416
0.000104484
0.000104751
0.000104957
0.0001051
0.000105173
0.000105173
0.000105095
0.000104931
0.000104678
0.000104328
0.000103875
0.000103312
0.000102631
0.000101826
0.00010089
9.98148e-05
9.85941e-05
9.72213e-05
9.56908e-05
9.39979e-05
9.21391e-05
9.01126e-05
8.79189e-05
8.55609e-05
8.30449e-05
8.03812e-05
7.75846e-05
7.46763e-05
7.1686e-05
6.86582e-05
6.56521e-05
6.29504e-05
6.03034e-05
5.77434e-05
5.52804e-05
5.29695e-05
5.10438e-05
4.93583e-05
4.81233e-05
0.000248119
4.46501e-05
4.34828e-05
4.29911e-05
4.27486e-05
4.2636e-05
4.26229e-05
4.2733e-05
4.31379e-05
4.30004e-05
4.39622e-05
4.8312e-05
4.86226e-05
4.88697e-05
0.000235227
0.000230357
4.556e-05
4.56586e-05
4.58763e-05
4.60821e-05
4.62702e-05
4.64385e-05
4.65851e-05
4.67085e-05
4.68075e-05
4.6881e-05
4.6928e-05
4.69479e-05
4.69401e-05
4.69042e-05
4.68409e-05
4.67537e-05
4.66579e-05
4.66134e-05
4.68337e-05
4.7989e-05
4.95781e-05
0.000227141
4.50296e-05
4.42506e-05
4.51672e-05
0.000224308
0.00022101
4.57644e-05
4.30756e-05
4.49639e-05
4.54734e-05
0.000208926
4.36694e-05
4.37093e-05
0.000205583
4.30541e-05
0.000214899
0.000213268
0.000208962
0.000194799
4.01027e-05
4.03287e-05
0.000206112
0.000207339
0.000203001
3.82204e-05
3.80956e-05
0.000197593
0.000184003
0.00018351
0.000180644
0.000194634
0.000193537
0.000188329
0.000181364
0.000173184
0.000163776
3.36596e-05
9.89834e-05
0.000157916
0.000203572
0.000236194
0.000260201
0.000277292
0.00028869
0.000295841
0.000300147
0.000304976
0.000302626
0.000278291
0.00027368
0.000283418
0.00027364
0.000276752
0.00028451
0.000289976
0.000293388
0.00029531
0.000295777
0.000294925
0.000293126
0.00029079
0.000288259
0.000285877
0.000283974
0.000282741
0.000282277
0.000282655
0.00028394
0.000286191
0.000289454
0.000293761
0.000299129
0.000305555
0.000313021
0.000321493
0.00033092
0.000341244
0.0003524
0.000364322
0.000376943
0.000390201
0.00040404
0.000418409
0.000433264
0.000448563
0.000464268
0.000480337
0.000496723
0.000513369
0.000530199
0.000547118
0.000563996
0.000580666
0.000596907
0.000612448
0.00062696
0.000640336
0.000653691
0.000667129
0.000680637
0.000694185
0.000707736
0.000721247
0.00073467
0.00074795
0.000761026
0.000773832
0.000786296
0.000798338
0.000809874
0.00082081
0.00083105
0.000840489
0.000849019
0.000856524
0.000862886
0.000867983
0.000871694
0.000873895
0.000874468
0.0008733
0.000870287
0.000865339
0.00085838
0.00084936
0.000838252
0.000825062
0.000809829
0.000792635
0.000773599
0.000752886
0.000730696
0.000707256
0.000682791
0.000657499
0.000631439
0.000605552
0.000580275
0.000555377
0.000529027
0.000504715
0.00048363
0.000469592
0.000507553
0.000424063
0.000403741
0.000393761
0.000386782
0.000381684
0.000378199
0.00037651
0.000377261
0.000375633
0.000380582
0.000383859
0.000387004
0.000395218
0.000463197
0.000457889
0.000403812
0.000402595
0.000404814
0.000407316
0.000409821
0.000412274
0.000414638
0.000416886
0.000418991
0.000420929
0.00042268
0.000424222
0.000425534
0.000426596
0.000427383
0.000427872
0.000428072
0.000428118
0.000428378
0.000428875
0.000419104
0.000479995
0.000407351
0.000398082
0.000404525
0.000466736
0.000456227
0.000375473
0.000373757
0.000362461
0.000366677
0.000418551
0.000346976
0.000347544
0.000408481
0.000345895
0.000447614
0.000445759
0.000434699
0.000384903
0.000312349
0.000317743
0.000454705
0.000471379
0.000449792
0.000293627
0.000294128
0.000446715
0.000384684
0.000398172
0.000375585
0.000452019
0.000454286
0.000444051
0.000430515
0.000414642
0.000394263
4.87603e-05
0.000134868
0.000218526
0.000289219
0.000345757
0.000389042
0.000420449
0.000441589
0.000454267
0.000460442
0.000461232
0.000457193
0.000449783
0.000443924
0.000441072
0.000439625
0.000441116
0.00044382
0.000446125
0.00044745
0.000447658
0.000446805
0.000445193
0.000443309
0.000441703
0.000440901
0.000441382
0.00044356
0.000447767
0.000454255
0.000463206
0.000474734
0.000488877
0.000505602
0.000524805
0.000546315
0.00056991
0.000595328
0.000622285
0.00065049
0.000679664
0.000709551
0.000739929
0.00077061
0.000801449
0.000832331
0.000863177
0.000893928
0.000924542
0.000954987
0.000985229
0.00101523
0.00104495
0.00107432
0.00110326
0.00113169
0.0011595
0.00118658
0.00121285
0.0012381
0.00126305
0.00128801
0.00131303
0.00133808
0.0013631
0.00138801
0.00141273
0.00143718
0.00146124
0.00148482
0.00150777
0.00152999
0.00155131
0.0015716
0.00159068
0.00160839
0.00162454
0.00163895
0.00165141
0.00166173
0.00166969
0.00167509
0.00167773
0.00167739
0.00167391
0.0016671
0.00165682
0.00164297
0.00162547
0.00160429
0.00157947
0.00155112
0.00151938
0.00148452
0.00144684
0.00140672
0.00136461
0.00132096
0.00127626
0.00123086
0.00118549
0.00114058
0.00109611
0.00105157
0.00100794
0.000968672
0.000936247
0.000918016
0.000870402
0.000840999
0.000821274
0.000806791
0.000796206
0.000789152
0.000785625
0.000785858
0.000788206
0.000793926
0.000801207
0.000807094
0.000815609
0.000837665
0.000839268
0.000826876
0.000830472
0.000837119
0.000844229
0.00085134
0.000858318
0.00086508
0.000871556
0.000877685
0.000883407
0.00088867
0.00089342
0.000897606
0.000901177
0.000904085
0.000906296
0.000907845
0.000908928
0.000909992
0.000911089
0.000909548
0.000920199
0.000888128
0.000878657
0.000880128
0.000898291
0.000888147
0.000852632
0.00084213
0.000832152
0.000828119
0.000835251
0.000802201
0.000796985
0.000811238
0.000786754
0.000814034
0.000806282
0.000792789
0.000762932
0.000729702
0.000729211
0.00077761
0.000781922
0.000764227
0.000690417
0.00068636
0.000740822
0.000693535
0.000690476
0.00067775
0.000726822
0.000725342
0.000709881
0.00068982
0.000666101
0.000636252
6.38166e-05
0.000175784
0.000285047
0.000375579
0.000446679
0.00050006
0.000537833
0.000562225
0.000575549
0.000579964
0.000577721
0.00057187
0.000565079
0.000559599
0.000556589
0.000556033
0.000557406
0.000559711
0.00056208
0.000564051
0.000565547
0.000566808
0.000568326
0.000570748
0.000574772
0.00058106
0.000590186
0.000602604
0.000618623
0.000638403
0.00066196
0.000689169
0.000719785
0.000753459
0.000789773
0.000828261
0.000868443
0.00090985
0.000952046
0.000994644
0.00103732
0.0010798
0.00112189
0.00116345
0.00120438
0.00124464
0.00128419
0.00132304
0.00136121
0.00139872
0.00143559
0.00147184
0.00150748
0.00154252
0.00157694
0.00161074
0.0016439
0.00167638
0.00170818
0.00173936
0.00177034
0.00180125
0.0018321
0.00186283
0.00189338
0.00192364
0.00195353
0.00198293
0.0020117
0.00203973
0.00206685
0.00209292
0.00211777
0.00214121
0.00216306
0.00218311
0.00220117
0.002217
0.00223038
0.00224107
0.00224884
0.00225345
0.00225466
0.00225225
0.00224601
0.00223574
0.00222129
0.00220253
0.0021794
0.00215188
0.00212004
0.002084
0.00204399
0.00200034
0.00195346
0.00190385
0.00185208
0.00179878
0.0017446
0.00169014
0.00163593
0.00158237
0.00152958
0.0014775
0.00142635
0.00137879
0.00133623
0.00129968
0.00125976
0.00122741
0.00120234
0.00118311
0.00116896
0.00115952
0.00115462
0.00115409
0.00115705
0.00116284
0.00117079
0.00117893
0.00118846
0.00120118
0.00120919
0.00121398
0.00122365
0.00123505
0.00124684
0.00125858
0.00127009
0.00128124
0.00129193
0.00130205
0.00131152
0.00132024
0.00132815
0.00133516
0.00134119
0.00134619
0.00135011
0.00135297
0.00135493
0.00135622
0.00135669
0.00135524
0.00135247
0.00133675
0.00132773
0.0013232
0.00132262
0.00131165
0.00129201
0.00127814
0.00126542
0.00125353
0.00124319
0.00122199
0.00120949
0.00120221
0.00118433
0.00117904
0.00116437
0.00114721
0.00112481
0.00110348
0.00109199
0.0010953
0.00108688
0.00106952
0.0010357
0.00102363
0.00102581
0.000991133
0.000977279
0.000965879
0.000983394
0.000973641
0.000952693
0.000926733
0.000896184
0.000859109
7.9104e-05
0.000217794
0.000349453
0.000455823
0.000537358
0.000596946
0.000637741
0.000662962
0.000675612
0.000678514
0.000675272
0.000669162
0.000662848
0.000658135
0.000655856
0.000655989
0.000658011
0.000661243
0.000665167
0.000669583
0.000674637
0.000680766
0.000688605
0.000698882
0.000712302
0.000729467
0.00075081
0.000776572
0.000806788
0.000841306
0.000879808
0.00092185
0.000966899
0.00101437
0.00106367
0.00111422
0.00116549
0.00121699
0.00126831
0.00131912
0.00136916
0.00141823
0.0014662
0.00151299
0.00155859
0.00160298
0.00164622
0.00168834
0.00172942
0.00176952
0.00180872
0.00184707
0.00188464
0.00192149
0.00195764
0.00199312
0.00202796
0.00206216
0.0020957
0.00212871
0.00216146
0.00219402
0.00222637
0.00225846
0.00229021
0.00232153
0.00235231
0.00238243
0.00241176
0.00244016
0.00246749
0.00249359
0.00251828
0.0025414
0.00256274
0.00258212
0.00259933
0.00261414
0.00262634
0.00263569
0.00264196
0.00264491
0.00264431
0.00263993
0.00263156
0.00261902
0.00260214
0.00258081
0.00255494
0.00252453
0.00248964
0.00245043
0.00240713
0.00236009
0.00230978
0.00225674
0.00220164
0.00214521
0.00208821
0.00203137
0.00197518
0.00192011
0.00186638
0.00181403
0.00176307
0.00171477
0.00167026
0.00162993
0.00159213
0.00155957
0.00153287
0.00151183
0.00149623
0.00148587
0.0014805
0.00147983
0.00148315
0.00148965
0.0014987
0.00150923
0.00152123
0.00153478
0.00154791
0.00156083
0.0015756
0.00159129
0.00160722
0.00162303
0.00163851
0.0016535
0.00166784
0.00168142
0.00169411
0.0017058
0.00171638
0.00172576
0.00173386
0.00174058
0.00174589
0.00174978
0.00175231
0.00175354
0.00175323
0.00175076
0.00174536
0.00173504
0.00172577
0.00171733
0.00170892
0.00169609
0.0016795
0.00166326
0.00164681
0.0016296
0.00161182
0.00159082
0.00157209
0.00155431
0.00153311
0.00151437
0.00149318
0.00147101
0.00144722
0.00142411
0.00140366
0.00138773
0.00136935
0.00134814
0.00132276
0.00130317
0.00128573
0.00125596
0.00123533
0.00121896
0.00121422
0.00119574
0.00116931
0.00113808
0.001102
0.00105948
9.45571e-05
0.000254737
0.000405886
0.000526575
0.000617791
0.000683492
0.000727879
0.000754705
0.000767535
0.000770494
0.000767443
0.000761755
0.00075605
0.000752026
0.000750473
0.000751487
0.000754775
0.00075997
0.000766857
0.000775483
0.000786163
0.000799417
0.000815869
0.000836135
0.000860726
0.000889972
0.000923993
0.000962691
0.00100577
0.00105278
0.00110316
0.00115628
0.00121149
0.00126814
0.00132564
0.00138343
0.00144102
0.00149802
0.00155408
0.00160894
0.0016624
0.00171435
0.0017647
0.00181343
0.00186054
0.00190609
0.00195015
0.0019928
0.00203413
0.00207426
0.00211328
0.00215129
0.00218838
0.00222464
0.00226011
0.00229487
0.00232893
0.00236231
0.00239501
0.00242706
0.00245878
0.00249019
0.00252127
0.00255194
0.00258215
0.00261179
0.00264078
0.00266898
0.00269629
0.00272258
0.0027477
0.00277152
0.00279388
0.00281461
0.00283356
0.00285055
0.00286539
0.00287789
0.00288785
0.00289507
0.00289934
0.00290045
0.00289818
0.00289233
0.0028827
0.00286911
0.0028514
0.00282945
0.00280317
0.00277255
0.00273761
0.0026985
0.00265542
0.00260872
0.00255882
0.00250631
0.00245186
0.00239625
0.00234037
0.00228491
0.00223049
0.00217774
0.00212699
0.00207832
0.00203171
0.00198731
0.00194612
0.00190838
0.00187402
0.00184394
0.00181869
0.00179854
0.00178358
0.00177381
0.00176909
0.00176912
0.00177341
0.00178122
0.00179195
0.0018049
0.00181968
0.00183597
0.00185308
0.00187085
0.00188961
0.00190893
0.00192837
0.0019476
0.00196641
0.00198459
0.00200197
0.0020184
0.00203373
0.00204783
0.00206059
0.00207188
0.0020816
0.00208968
0.00209604
0.00210067
0.00210354
0.00210465
0.0021038
0.00210053
0.00209454
0.00208563
0.00207566
0.00206474
0.0020525
0.00203757
0.00202017
0.00200155
0.00198178
0.00196067
0.00193839
0.00191453
0.00189071
0.00186646
0.00184051
0.00181453
0.00178764
0.0017602
0.0017321
0.00170409
0.00167674
0.00165086
0.00162482
0.00159819
0.00157073
0.00154468
0.00151849
0.00148843
0.00146234
0.00143923
0.0014202
0.00139416
0.00136262
0.00132676
0.00128626
0.00123971
0.000109141
0.000288241
0.00045656
0.000590294
0.000690889
0.000763226
0.000811818
0.00084115
0.000855859
0.000860304
0.000858494
0.000853877
0.000849126
0.000846023
0.000845526
0.000847974
0.000853366
0.000861623
0.000872761
0.000886968
0.000904597
0.000926093
0.000951906
0.000982392
0.00101775
0.00105797
0.00110286
0.00115203
0.00120496
0.00126104
0.0013196
0.00137997
0.00144151
0.00150361
0.00156573
0.00162738
0.00168817
0.00174774
0.00180583
0.00186223
0.00191681
0.00196947
0.00202017
0.00206892
0.00211576
0.00216075
0.00220399
0.00224559
0.00228565
0.00232432
0.00236169
0.00239791
0.00243307
0.00246726
0.00250058
0.00253308
0.00256481
0.00259579
0.00262601
0.00265546
0.00268448
0.00271306
0.00274118
0.00276878
0.00279579
0.00282213
0.00284771
0.00287242
0.00289616
0.00291881
0.00294026
0.00296039
0.00297907
0.00299618
0.00301157
0.0030251
0.00303665
0.00304605
0.00305315
0.00305779
0.00305981
0.00305903
0.00305527
0.00304837
0.00303815
0.00302444
0.00300709
0.00298597
0.00296098
0.00293205
0.0028992
0.00286249
0.00282209
0.00277825
0.00273137
0.00268198
0.00263071
0.00257837
0.00252588
0.00247387
0.00242318
0.0023746
0.00232861
0.00228541
0.00224493
0.00220693
0.00217193
0.00214003
0.00211131
0.00208614
0.00206491
0.00204797
0.0020356
0.00202795
0.00202503
0.00202667
0.00203253
0.0020421
0.00205482
0.00207011
0.00208748
0.00210654
0.00212681
0.00214798
0.0021699
0.00219221
0.00221455
0.00223661
0.00225816
0.00227895
0.00229881
0.00231756
0.00233503
0.00235107
0.00236555
0.00237835
0.00238936
0.00239847
0.00240563
0.00241077
0.00241387
0.00241485
0.00241357
0.00240975
0.00240335
0.00239443
0.00238359
0.00237094
0.00235637
0.00233947
0.00232037
0.00229945
0.00227688
0.00225264
0.00222692
0.00219978
0.00217178
0.00214279
0.00211248
0.00208143
0.00204965
0.00201733
0.00198452
0.0019515
0.00191856
0.00188613
0.00185394
0.00182184
0.00178976
0.00175809
0.00172623
0.00169335
0.00166224
0.00163275
0.00160436
0.00157215
0.00153607
0.00149627
0.00145222
0.00140278
0.000122414
0.000317629
0.000500934
0.000646659
0.000756472
0.000835408
0.00088904
0.000922565
0.000940787
0.000948182
0.000948832
0.000946256
0.000943241
0.000941763
0.000943042
0.000947717
0.000956077
0.000968272
0.000984454
0.00100484
0.00102969
0.00105927
0.00109377
0.00113325
0.0011776
0.00122655
0.00127965
0.00133637
0.00139606
0.00145808
0.00152176
0.00158645
0.00165156
0.00171654
0.00178094
0.00184431
0.00190633
0.00196671
0.00202522
0.0020817
0.00213604
0.00218818
0.00223809
0.00228581
0.00233137
0.00237487
0.00241641
0.0024561
0.00249408
0.00253048
0.00256543
0.00259907
0.00263151
0.00266286
0.00269321
0.00272263
0.00275118
0.00277888
0.00280573
0.00283173
0.00285716
0.00288202
0.00290629
0.00292991
0.00295283
0.00297497
0.00299624
0.00301656
0.00303584
0.00305397
0.00307088
0.00308646
0.00310062
0.00311327
0.00312431
0.00313367
0.00314124
0.00314693
0.00315064
0.00315228
0.00315173
0.00314888
0.00314361
0.00313578
0.00312527
0.00311193
0.00309561
0.00307618
0.00305352
0.00302752
0.00299814
0.00296536
0.00292926
0.00289001
0.00284789
0.00280334
0.00275694
0.00270944
0.00266169
0.00261431
0.00256838
0.00252481
0.00248428
0.00244712
0.00241336
0.00238266
0.00235513
0.00233067
0.00230921
0.00229076
0.0022755
0.00226368
0.00225561
0.00225152
0.00225157
0.00225572
0.0022638
0.00227547
0.00229035
0.00230791
0.00232767
0.00234918
0.00237203
0.00239585
0.00242033
0.0024451
0.00246983
0.00249422
0.00251801
0.00254095
0.00256283
0.00258346
0.00260266
0.00262026
0.00263614
0.00265014
0.00266216
0.0026721
0.00267986
0.00268539
0.00268863
0.00268951
0.00268791
0.00268366
0.00267679
0.0026674
0.00265567
0.00264169
0.00262544
0.00260684
0.00258596
0.00256298
0.00253802
0.00251118
0.0024826
0.00245244
0.00242096
0.00238819
0.00235411
0.002319
0.00228304
0.00224642
0.00220924
0.00217171
0.00213403
0.00209649
0.00205917
0.00202207
0.0019852
0.00194858
0.00191201
0.00187537
0.0018396
0.00180462
0.0017697
0.00173252
0.00169255
0.00164946
0.00160264
0.00155116
0.000133908
0.000342053
0.000537966
0.000694243
0.000812531
0.000898761
0.000958788
0.000997965
0.00102119
0.00103299
0.00103745
0.00103813
0.00103795
0.00103908
0.00104303
0.00105072
0.0010627
0.00107928
0.00110067
0.00112704
0.0011585
0.00119511
0.0012368
0.00128339
0.00133452
0.00138976
0.00144853
0.00151023
0.00157419
0.00163977
0.00170634
0.00177331
0.00184014
0.00190636
0.00197154
0.00203533
0.00209741
0.00215755
0.00221556
0.00227129
0.00232465
0.0023756
0.00242413
0.00247028
0.00251409
0.00255566
0.0025951
0.00263253
0.00266809
0.00270191
0.00273414
0.0027649
0.00279433
0.00282255
0.00284963
0.00287567
0.00290072
0.00292482
0.00294797
0.00297018
0.00299168
0.00301247
0.00303254
0.00305184
0.00307029
0.00308784
0.00310441
0.00311992
0.0031343
0.00314746
0.00315934
0.00316987
0.00317898
0.00318664
0.00319279
0.00319739
0.00320041
0.00320181
0.00320158
0.00319968
0.00319608
0.00319073
0.00318358
0.00317457
0.00316362
0.00315061
0.00313544
0.00311798
0.00309807
0.00307559
0.0030504
0.00302243
0.00299162
0.00295803
0.00292182
0.00288327
0.00284288
0.00280129
0.00275912
0.00271717
0.0026766
0.00263843
0.00260353
0.00257243
0.00254531
0.00252194
0.00250215
0.00248572
0.00247234
0.00246174
0.0024538
0.00244855
0.0024462
0.00244697
0.00245107
0.00245862
0.00246959
0.0024838
0.00250099
0.0025208
0.00254281
0.00256655
0.00259161
0.00261762
0.00264422
0.00267105
0.00269778
0.00272411
0.00274975
0.00277445
0.002798
0.00282018
0.0028408
0.0028597
0.00287672
0.00289172
0.00290457
0.00291518
0.00292344
0.00292929
0.00293266
0.00293347
0.00293165
0.00292708
0.00291973
0.00290976
0.00289723
0.00288217
0.00286461
0.00284457
0.00282211
0.00279733
0.00277036
0.0027413
0.00271029
0.0026775
0.0026431
0.00260719
0.00256986
0.00253132
0.00249176
0.00245138
0.00241034
0.00236881
0.00232701
0.00228515
0.0022434
0.00220185
0.00216054
0.00211951
0.00207871
0.00203816
0.00199814
0.00195853
0.00191873
0.00187751
0.00183427
0.00178848
0.00173954
0.00168668
0.000143326
0.00036067
0.00056633
0.000731976
0.000858938
0.000953087
0.00102041
0.00106634
0.00109582
0.00111333
0.0011229
0.00112811
0.00113193
0.00113671
0.00114418
0.00115552
0.00117146
0.00119244
0.00121869
0.00125032
0.00128729
0.00132948
0.00137662
0.00142836
0.00148421
0.00154363
0.00160601
0.00167071
0.00173709
0.00180455
0.00187249
0.00194039
0.00200775
0.00207416
0.00213922
0.00220262
0.00226409
0.00232341
0.00238041
0.00243497
0.002487
0.00253648
0.00258339
0.00262777
0.00266969
0.00270923
0.00274651
0.00278164
0.00281476
0.00284602
0.00287555
0.00290349
0.00292996
0.0029551
0.00297898
0.0030017
0.00302331
0.00304386
0.00306337
0.00308182
0.00309943
0.00311619
0.00313208
0.00314706
0.00316106
0.00317401
0.00318584
0.00319649
0.00320587
0.00321394
0.00322062
0.00322589
0.00322971
0.00323205
0.00323293
0.00323234
0.00323031
0.00322689
0.00322211
0.00321603
0.0032087
0.00320017
0.00319047
0.00317963
0.00316764
0.00315445
0.00314001
0.0031242
0.00310689
0.00308791
0.00306707
0.0030442
0.00301913
0.00299178
0.00296215
0.00293036
0.00289673
0.00286176
0.00282581
0.00278987
0.00275507
0.00272253
0.00269326
0.00266801
0.0026472
0.00263077
0.00261845
0.00260999
0.0026049
0.00260265
0.0026028
0.00260512
0.00260957
0.00261628
0.00262545
0.00263726
0.0026518
0.00266904
0.00268885
0.00271099
0.00273515
0.00276098
0.00278805
0.00281598
0.00284441
0.00287301
0.00290145
0.00292941
0.00295662
0.00298281
0.00300776
0.00303125
0.00305308
0.00307307
0.00309107
0.00310692
0.0031205
0.0031317
0.00314042
0.00314657
0.00315009
0.00315091
0.00314895
0.00314413
0.00313642
0.00312594
0.00311272
0.0030968
0.0030782
0.00305696
0.00303315
0.00300686
0.00297819
0.00294726
0.00291419
0.00287914
0.00284227
0.0028037
0.00276357
0.00272206
0.00267937
0.00263569
0.00259123
0.00254616
0.00250069
0.00245503
0.00240937
0.00236383
0.00231852
0.00227351
0.00222882
0.00218452
0.00214066
0.0020971
0.00205341
0.00200886
0.00196288
0.00191492
0.0018644
0.00181067
0.000149379
0.000373208
0.000586954
0.000761023
0.000896266
0.000998448
0.00107355
0.00112701
0.00116368
0.00118795
0.00120377
0.00121462
0.0012235
0.00123285
0.00124454
0.00125994
0.00127992
0.00130504
0.00133553
0.00137146
0.00141269
0.00145898
0.00150996
0.00156515
0.00162402
0.00168597
0.00175038
0.00181665
0.00188415
0.00195233
0.00202063
0.00208858
0.00215572
0.00222167
0.00228608
0.00234865
0.00240914
0.00246734
0.00252311
0.00257633
0.00262692
0.00267486
0.00272013
0.00276279
0.00280288
0.0028405
0.00287575
0.00290875
0.00293963
0.00296855
0.00299562
0.00302099
0.00304479
0.00306713
0.0030881
0.0031078
0.00312628
0.00314358
0.00315973
0.00317471
0.0031887
0.00320171
0.0032137
0.00322463
0.00323443
0.00324303
0.00325037
0.00325636
0.00326094
0.00326405
0.00326565
0.00326571
0.00326421
0.00326116
0.00325659
0.00325055
0.00324312
0.0032344
0.00322451
0.00321358
0.00320176
0.0031892
0.00317604
0.00316241
0.00314841
0.0031341
0.00311949
0.00310453
0.00308912
0.00307309
0.00305621
0.00303822
0.00301886
0.00299788
0.0029751
0.00295047
0.00292411
0.00289616
0.00286698
0.00283751
0.00280883
0.0027821
0.00275845
0.00273885
0.00272393
0.0027139
0.00270853
0.00270761
0.0027106
0.00271674
0.00272531
0.00273576
0.00274777
0.00276127
0.00277636
0.00279322
0.002812
0.0028328
0.00285561
0.00288031
0.00290671
0.00293453
0.00296347
0.0029932
0.0030233
0.00305348
0.00308341
0.0031128
0.00314137
0.00316886
0.00319503
0.00321966
0.00324254
0.0032635
0.00328237
0.003299
0.00331325
0.00332501
0.00333418
0.00334066
0.00334439
0.0033453
0.00334331
0.00333836
0.00333041
0.00331954
0.0033058
0.00328921
0.00326979
0.0032476
0.0032227
0.00319516
0.00316508
0.00313257
0.00309777
0.0030608
0.00302182
0.00298098
0.00293842
0.00289432
0.00284888
0.0028023
0.00275479
0.00270654
0.00265777
0.00260869
0.00255949
0.00251034
0.00246138
0.00241272
0.00236446
0.00231664
0.00226929
0.00222229
0.00217534
0.00212797
0.00207967
0.00202996
0.00197828
0.00192404
0.000152749
0.000380723
0.000600678
0.000782013
0.000924972
0.00103507
0.00111817
0.00117961
0.00122413
0.00125594
0.00127886
0.00129624
0.00131102
0.00132565
0.00134208
0.00136177
0.00138573
0.00141458
0.00144862
0.00148789
0.00153222
0.00158133
0.00163477
0.00169205
0.00175261
0.00181585
0.00188116
0.00194797
0.0020157
0.00208381
0.00215181
0.00221924
0.00228569
0.0023508
0.00241425
0.00247575
0.00253509
0.00259207
0.00264655
0.00269841
0.0027476
0.00279407
0.00283784
0.00287892
0.00291737
0.00295329
0.00298677
0.00301792
0.00304688
0.00307378
0.00309875
0.00312192
0.00314343
0.00316337
0.00318185
0.00319894
0.00321471
0.00322919
0.00324241
0.00325437
0.00326513