/*--------------------------------*- C++ -*----------------------------------*\
  =========                 |
  \\      /  F ield         | OpenFOAM: The Open Source CFD Toolbox
   \\    /   O peration     | Website:  https://openfoam.org
    \\  /    A nd           | Version:  9
     \\/     M anipulation  |
\*---------------------------------------------------------------------------*/
FoamFile
{
    format      ascii;
    class       volScalarField;
    location    "0.25";
    object      p;
}
// * * * * * * * * * * * * * * * * * * * * * * * * * * * * * * * * * * * * * //

dimensions      [0 2 -2 0 0 0 0];

internalField   nonuniform List<scalar> 
12225
(
0.839857
0.518369
0.422696
0.410153
0.404456
0.402645
0.406316
0.413407
0.422627
0.433739
0.446607
0.460966
0.476488
0.492743
0.509242
0.524908
0.539593
0.544383
0.424911
0.432923
0.418944
0.412903
0.407534
0.405494
0.408842
0.415755
0.42495
0.43614
0.449155
0.463719
0.479501
0.49609
0.513108
0.529775
0.547818
0.569911
0.391753
0.441894
0.425386
0.416066
0.411063
0.409221
0.412283
0.418935
0.428035
0.439265
0.452425
0.467235
0.483392
0.500549
0.518515
0.536788
0.557841
0.587014
0.425438
0.448809
0.426955
0.417203
0.413139
0.411812
0.414836
0.421337
0.430352
0.441573
0.454798
0.46977
0.48624
0.503951
0.522853
0.542673
0.565571
0.594036
0.432537
0.442515
0.424482
0.416711
0.4137
0.413031
0.416196
0.42263
0.431552
0.442685
0.455847
0.470814
0.487385
0.505367
0.52474
0.545282
0.568422
0.594099
0.426487
0.433566
0.42111
0.415263
0.413149
0.413149
0.416508
0.422878
0.431652
0.442592
0.455533
0.470281
0.486662
0.504502
0.52371
0.543978
0.566053
0.588513
0.420402
0.426172
0.417594
0.413108
0.411732
0.412324
0.41584
0.422095
0.430632
0.441242
0.453775
0.468054
0.483907
0.501133
0.519527
0.538638
0.558665
0.577564
0.41565
0.419847
0.413775
0.410335
0.409558
0.410611
0.414202
0.420257
0.428435
0.438555
0.450469
0.464003
0.478962
0.495094
0.512067
0.529296
0.546559
0.561659
0.411093
0.413865
0.409586
0.407009
0.406684
0.408043
0.411598
0.41734
0.425017
0.434465
0.445532
0.45803
0.471731
0.486317
0.501343
0.516125
0.530163
0.541386
0.406276
0.408014
0.405057
0.40317
0.403145
0.404646
0.408033
0.41333
0.420349
0.428932
0.438916
0.450094
0.462192
0.474834
0.487494
0.499431
0.510001
0.51738
0.401166
0.402222
0.400198
0.398827
0.398958
0.400438
0.403517
0.408227
0.414422
0.421945
0.43062
0.44021
0.450407
0.460784
0.470771
0.47962
0.486641
0.490278
0.396228
0.396875
0.395427
0.394385
0.394544
0.395867
0.398535
0.402576
0.407867
0.414251
0.421534
0.429462
0.437698
0.445792
0.453163
0.459093
0.462911
0.463249
0.391124
0.391474
0.390426
0.389577
0.389648
0.390694
0.392838
0.396099
0.400368
0.405484
0.411242
0.417368
0.423509
0.42921
0.433905
0.436927
0.437644
0.434927
0.384973
0.385102
0.38432
0.383548
0.383398
0.383987
0.385395
0.387626
0.390578
0.394089
0.397941
0.401851
0.405463
0.408333
0.409937
0.409691
0.407037
0.401106
0.377581
0.377564
0.376884
0.376032
0.37549
0.375402
0.37582
0.376729
0.378034
0.379571
0.381119
0.3824
0.383072
0.38273
0.38092
0.37716
0.371
0.361791
0.368761
0.36864
0.367886
0.366752
0.365601
0.364579
0.363717
0.362989
0.362301
0.361497
0.360369
0.358658
0.356063
0.352239
0.346823
0.339447
0.329778
0.317348
0.358388
0.358163
0.35716
0.355504
0.353486
0.351243
0.348798
0.346118
0.343119
0.339663
0.33557
0.330623
0.324577
0.317167
0.308129
0.297206
0.284178
0.268731
0.346545
0.346184
0.344753
0.342306
0.339128
0.335365
0.331044
0.326139
0.320586
0.31428
0.307084
0.298836
0.289358
0.278472
0.266003
0.251796
0.235723
0.2176
0.333861
0.333307
0.331243
0.327698
0.32303
0.31743
0.310947
0.303582
0.295307
0.286065
0.275768
0.264318
0.251611
0.237544
0.222027
0.204986
0.186367
0.166094
0.324725
0.324017
0.321274
0.316598
0.310516
0.30329
0.294997
0.285672
0.275323
0.263926
0.25143
0.237777
0.222906
0.206759
0.189292
0.170471
0.150277
0.128691
0.319812
0.319026
0.315655
0.309948
0.302675
0.294165
0.284511
0.273783
0.262015
0.249201
0.235308
0.220297
0.204132
0.186779
0.168215
0.148426
0.127408
0.105171
0.317587
0.31684
0.312778
0.305977
0.297582
0.287948
0.277167
0.265343
0.252527
0.238711
0.223867
0.207966
0.190981
0.172892
0.153687
0.133364
0.111927
0.0894039
0.317316
0.316903
0.312058
0.304078
0.294641
0.284021
0.272302
0.259638
0.246075
0.231585
0.216133
0.199691
0.182236
0.163751
0.144231
0.123678
0.102101
0.0795383
0.318424
0.31882
0.312971
0.303743
0.293377
0.28187
0.269349
0.256047
0.241974
0.227057
0.21125
0.194522
0.176846
0.158205
0.138595
0.118022
0.0964956
0.0740614
0.321058
0.322914
0.315234
0.304566
0.293384
0.281022
0.267778
0.253996
0.239597
0.224443
0.208473
0.191649
0.173935
0.155313
0.135778
0.115336
0.0939984
0.0718159
0.324965
0.330454
0.319111
0.306305
0.294241
0.280976
0.267063
0.252938
0.238369
0.223136
0.20716
0.190392
0.172786
0.154318
0.134983
0.11479
0.0937473
0.0719124
0.320604
0.339164
0.324039
0.308566
0.295317
0.28107
0.266617
0.252329
0.23776
0.222612
0.206788
0.190219
0.172845
0.154645
0.135615
0.115762
0.0950959
0.0736766
0.286955
0.335787
0.325052
0.30983
0.295531
0.280364
0.265705
0.25158
0.23727
0.222417
0.206941
0.190729
0.173716
0.155891
0.137252
0.117811
0.0975809
0.0766146
0.293262
0.319639
0.317927
0.308536
0.294288
0.278475
0.26401
0.250422
0.236646
0.222274
0.20733
0.191599
0.175041
0.157659
0.139461
0.120469
0.100702
0.0802151
0.699236
0.427707
0.331661
0.310398
0.294359
0.27788
0.263515
0.250268
0.236846
0.222903
0.20823
0.192774
0.176492
0.159384
0.141466
0.122761
0.103298
0.0831498
-0.679898
-0.651469
-0.635399
-0.649219
-0.686913
-0.722637
-0.749685
-0.778206
-0.80727
-0.833954
-0.853671
-0.869628
-0.882274
-0.890662
-0.902235
-0.917825
-0.935325
-0.953848
-0.974747
-0.999784
-1.02862
-1.0611
-1.09781
-1.13913
-1.18542
-1.23717
-1.2952
-1.36056
-1.43427
-1.51741
-1.61112
-1.71656
-1.83476
-1.96652
-2.11228
-2.27203
-2.44528
-2.631
-2.82769
-3.03343
-3.24603
-3.46307
-3.68205
-3.90048
-4.11593
-4.3261
-4.52883
-4.72215
-4.90424
-5.07344
-5.22825
-5.36736
-5.48955
-5.59374
-5.67895
-5.74455
-5.79045
-5.81688
-5.823
-5.80592
-5.7627
-5.69345
-5.59942
-5.48141
-5.34009
-5.17619
-4.99056
-4.78427
-4.55858
-4.31502
-4.05531
-3.78142
-3.49554
-3.20006
-2.89757
-2.59079
-2.28259
-1.9759
-1.67369
-1.37894
-1.09451
-0.823148
-0.567404
-0.329547
-0.111513
0.0851504
0.259345
0.410459
0.53839
0.643558
0.726885
0.78975
0.833925
0.861478
0.874671
0.875844
0.867302
0.851219
0.829524
0.803784
0.77512
0.744609
0.713086
0.681015
0.648679
0.616287
0.58393
0.551609
0.519135
0.48639
0.453449
0.420244
0.386788
0.353186
0.319669
0.2864
0.253669
0.221931
0.185811
0.147337
0.111311
0.0829437
0.0582644
0.0305596
0.00367694
-0.0218278
-0.0457896
-0.068128
-0.0887998
-0.107784
-0.125075
-0.140686
-0.154641
-0.166977
-0.17774
-0.186986
-0.194774
-0.201165
-0.206207
-0.209894
-0.212064
-0.211503
-0.206385
-0.21446
-0.220476
-0.211941
-0.207412
-0.202969
-0.196631
-0.18482
-0.1838
-0.179205
-0.167997
-0.170472
-0.158317
-0.143945
-0.143408
-0.130177
-0.115156
-0.109842
-0.09997
-0.0920811
-0.0759294
-0.0588796
-0.0512675
-0.0398693
-0.0267417
-0.0135546
-0.000579205
0.0114538
0.0224884
0.0343011
0.0474831
0.0604084
0.073258
0.0830076
0.0917667
0.0999799
0.107586
0.115282
-0.701091
-0.691134
-0.693238
-0.714346
-0.743146
-0.769697
-0.794951
-0.818989
-0.839168
-0.852685
-0.86676
-0.879593
-0.887542
-0.891419
-0.891159
-0.893595
-0.903079
-0.917265
-0.932444
-0.95025
-0.972645
-0.999477
-1.03054
-1.06607
-1.10679
-1.15363
-1.20727
-1.26873
-1.33959
-1.42137
-1.51554
-1.6235
-1.74637
-1.88491
-2.03935
-2.20931
-2.39379
-2.59123
-2.79959
-3.0165
-3.23942
-3.46571
-3.69279
-3.9182
-4.13964
-4.355
-4.56234
-4.7599
-4.9461
-5.11945
-5.27858
-5.42223
-5.5492
-5.65831
-5.74842
-5.81843
-5.86715
-5.8933
-5.89603
-5.87569
-5.83405
-5.77076
-5.68474
-5.57575
-5.44399
-5.28996
-5.11438
-4.91822
-4.70265
-4.46908
-4.21916
-3.95474
-3.6779
-3.3909
-3.09621
-2.79642
-2.49426
-2.19253
-1.89407
-1.60171
-1.31824
-1.04629
-0.788342
-0.546616
-0.323042
-0.119191
0.0637718
0.225121
0.364601
0.482436
0.579314
0.656355
0.715047
0.757174
0.784713
0.799739
0.804319
0.800393
0.789668
0.773756
0.753929
0.731138
0.706151
0.679529
0.651653
0.62279
0.593072
0.562462
0.53131
0.499706
0.467506
0.434737
0.401489
0.367944
0.334109
0.29987
0.266087
0.229885
0.195328
0.164006
0.136289
0.105184
0.0712541
0.0415544
0.0137978
-0.0124225
-0.0370631
-0.0600722
-0.0814114
-0.101059
-0.119008
-0.135269
-0.149865
-0.162831
-0.174213
-0.184065
-0.192448
-0.199425
-0.205062
-0.209427
-0.212639
-0.215727
-0.221913
-0.215724
-0.210371
-0.214559
-0.210904
-0.206417
-0.20255
-0.202344
-0.192825
-0.185236
-0.181868
-0.168035
-0.163552
-0.158464
-0.14402
-0.137379
-0.129649
-0.11595
-0.106184
-0.093895
-0.0850444
-0.0753107
-0.0600355
-0.0483169
-0.0364609
-0.0238095
-0.0110204
0.00196995
0.0144882
0.0267533
0.0385236
0.0510545
0.0622812
0.0728906
0.0821754
0.0910489
0.0995375
0.108527
-0.723196
-0.721446
-0.726331
-0.742691
-0.7663
-0.790205
-0.812087
-0.831115
-0.84658
-0.858054
-0.86609
-0.87049
-0.871265
-0.870059
-0.86906
-0.8701
-0.874386
-0.881413
-0.890986
-0.904047
-0.921255
-0.94304
-0.970024
-1.00314
-1.04368
-1.09318
-1.15312
-1.22485
-1.30955
-1.4082
-1.52151
-1.6498
-1.79299
-1.95056
-2.12163
-2.30493
-2.49896
-2.70197
-2.9121
-3.12743
-3.346
-3.56591
-3.78528
-4.00231
-4.21528
-4.42256
-4.62256
-4.81379
-4.99484
-5.16432
-5.32094
-5.46346
-5.59067
-5.70143
-5.79469
-5.86941
-5.92452
-5.95874
-5.97093
-5.96093
-5.92885
-5.87463
-5.79796
-5.69874
-5.57713
-5.43353
-5.26856
-5.08309
-4.87819
-4.65519
-4.41561
-4.16121
-3.89396
-3.61599
-3.32962
-3.03734
-2.74172
-2.44543
-2.15118
-1.86166
-1.57953
-1.30732
-1.04741
-0.801971
-0.572878
-0.361702
-0.169647
0.00248034
0.154299
0.285858
0.397628
0.490471
0.565585
0.62444
0.668691
0.700097
0.720422
0.731349
0.73441
0.73104
0.722406
0.709412
0.692846
0.673359
0.651435
0.627433
0.601587
0.573933
0.545002
0.515107
0.4841
0.452086
0.419252
0.385834
0.352017
0.317582
0.283012
0.247631
0.211958
0.178572
0.148119
0.117234
0.0850006
0.0548176
0.0262812
-0.000713332
-0.0261289
-0.0499168
-0.0720385
-0.0924699
-0.111203
-0.128244
-0.143614
-0.157346
-0.169484
-0.180082
-0.189199
-0.1969
-0.203247
-0.208308
-0.212208
-0.215608
-0.219803
-0.217134
-0.214387
-0.216078
-0.213628
-0.210067
-0.20656
-0.204467
-0.197435
-0.190993
-0.185655
-0.175239
-0.169862
-0.16315
-0.151688
-0.144661
-0.135984
-0.12388
-0.113812
-0.102487
-0.0938412
-0.0834375
-0.0693541
-0.0576131
-0.0459647
-0.0336105
-0.0209916
-0.00792508
0.00492817
0.0170161
0.0285176
0.0405187
0.0517233
0.0630405
0.0729864
0.0826303
0.0919696
0.10211
-0.721489
-0.73157
-0.741772
-0.756342
-0.774065
-0.792043
-0.808471
-0.822451
-0.833439
-0.841177
-0.845692
-0.847299
-0.846646
-0.844882
-0.843629
-0.844079
-0.846973
-0.852832
-0.862253
-0.876014
-0.895027
-0.920364
-0.953241
-0.994967
-1.04687
-1.11018
-1.18593
-1.27485
-1.37735
-1.49348
-1.62302
-1.76548
-1.92016
-2.08618
-2.26253
-2.44809
-2.64165
-2.84193
-3.04758
-3.25722
-3.4694
-3.68265
-3.89549
-4.10642
-4.31396
-4.51663
-4.71295
-4.90149
-5.08084
-5.24959
-5.40641
-5.54996
-5.67896
-5.79217
-5.88842
-5.96661
-6.0257
-6.06471
-6.08284
-6.07966
-6.05479
-6.00787
-5.9386
-5.8469
-5.73288
-5.59685
-5.43938
-5.26124
-5.06342
-4.84718
-4.61394
-4.36538
-4.10338
-3.83
-3.54747
-3.25818
-2.96463
-2.66942
-2.37519
-2.08458
-1.8002
-1.52455
-1.26
-1.00873
-0.772642
-0.553369
-0.352194
-0.170025
-0.00737271
0.135662
0.259385
0.364478
0.451956
0.523103
0.579398
0.622433
0.653831
0.675164
0.687911
0.69347
0.692963
0.687274
0.677209
0.663452
0.646555
0.6269
0.604762
0.580309
0.553945
0.525932
0.496343
0.465344
0.433171
0.400085
0.36637
0.332014
0.29706
0.26161
0.225747
0.191335
0.158896
0.12742
0.0959748
0.0655873
0.0365571
0.00899
-0.0170308
-0.041441
-0.0641952
-0.0852654
-0.104641
-0.122325
-0.138337
-0.152709
-0.165481
-0.176708
-0.186446
-0.194758
-0.201707
-0.207359
-0.211832
-0.21547
-0.218437
-0.218476
-0.217877
-0.217961
-0.216178
-0.213411
-0.210207
-0.206765
-0.201343
-0.195867
-0.189839
-0.18206
-0.175815
-0.1683
-0.159064
-0.151312
-0.142297
-0.131959
-0.121792
-0.111228
-0.10182
-0.090672
-0.0781593
-0.0665694
-0.0547716
-0.042494
-0.0298665
-0.017019
-0.00451484
0.00700799
0.0187328
0.0305149
0.0427776
0.0546252
0.0652138
0.0755282
0.0854865
0.0964436
-0.671332
-0.693917
-0.710506
-0.727148
-0.744215
-0.760378
-0.774594
-0.786331
-0.795335
-0.801586
-0.805358
-0.807189
-0.80784
-0.808289
-0.809658
-0.813001
-0.819219
-0.829138
-0.843649
-0.863817
-0.890853
-0.926037
-0.970639
-1.02582
-1.09256
-1.17152
-1.26309
-1.36732
-1.48402
-1.61278
-1.75301
-1.90406
-2.06516
-2.2355
-2.41423
-2.60044
-2.79316
-2.99139
-3.19404
-3.4
-3.60807
-3.81703
-4.02561
-4.23252
-4.43642
-4.63596
-4.82979
-5.01652
-5.19479
-5.36323
-5.52047
-5.66517
-5.79603
-5.91176
-6.01113
-6.09298
-6.15622
-6.19985
-6.22304
-6.22517
-6.2057
-6.16416
-6.10025
-6.01383
-5.90496
-5.77389
-5.62112
-5.44736
-5.25353
-5.0408
-4.81056
-4.5644
-4.30414
-4.03178
-3.74951
-3.45966
-3.1647
-2.86719
-2.56975
-2.27501
-1.98559
-1.70403
-1.43272
-1.1739
-0.929573
-0.701449
-0.490926
-0.299041
-0.126439
0.0266372
0.160352
0.275252
0.372226
0.452449
0.517309
0.568333
0.607104
0.635185
0.654089
0.66526
0.669854
0.668805
0.662969
0.653059
0.639656
0.62317
0.603881
0.581998
0.5578
0.531511
0.5033
0.473372
0.441976
0.409384
0.375882
0.341629
0.306672
0.27119
0.235586
0.200978
0.167763
0.135566
0.103898
0.0732459
0.0438679
0.0159056
-0.0105394
-0.0353922
-0.058601
-0.0801342
-0.0999779
-0.118135
-0.134621
-0.149468
-0.162716
-0.174415
-0.184623
-0.193403
-0.200816
-0.206933
-0.21187
-0.215841
-0.218853
-0.219871
-0.220032
-0.219994
-0.218642
-0.216363
-0.213456
-0.210004
-0.205139
-0.200049
-0.194359
-0.187347
-0.180961
-0.173672
-0.16509
-0.157168
-0.148508
-0.138841
-0.128841
-0.118574
-0.108806
-0.0978225
-0.0860088
-0.0745349
-0.0627198
-0.0505165
-0.0379491
-0.0253168
-0.0130662
-0.00160529
0.0103102
0.0222767
0.0351205
0.0472957
0.0584524
0.0693319
0.0797804
0.0913051
-0.580568
-0.612797
-0.640135
-0.662865
-0.682721
-0.700033
-0.714618
-0.726438
-0.73564
-0.74257
-0.747791
-0.752043
-0.756205
-0.761253
-0.768193
-0.778017
-0.791688
-0.810184
-0.834551
-0.865924
-0.905477
-0.954339
-1.01351
-1.08376
-1.16562
-1.25932
-1.3648
-1.48178
-1.60983
-1.74837
-1.89677
-2.05435
-2.2204
-2.39422
-2.57505
-2.76215
-2.95471
-3.1519
-3.35284
-3.55659
-3.76217
-3.96852
-4.17454
-4.37908
-4.58092
-4.77882
-4.97149
-5.15759
-5.3358
-5.50474
-5.66305
-5.80938
-5.94236
-6.0607
-6.1631
-6.24837
-6.31535
-6.36299
-6.39038
-6.39677
-6.38153
-6.34412
-6.2842
-6.20156
-6.09621
-5.96836
-5.81843
-5.64708
-5.45518
-5.24383
-5.01437
-4.76835
-4.50752
-4.23387
-3.94953
-3.65681
-3.35816
-3.05614
-2.75337
-2.4525
-2.15618
-1.867
-1.58744
-1.31981
-1.0662
-0.828463
-0.608111
-0.406319
-0.223871
-0.061146
0.0818901
0.205668
0.310978
0.398918
0.470825
0.528201
0.572631
0.605709
0.629029
0.644087
0.652097
0.654096
0.651013
0.643611
0.632511
0.618158
0.600856
0.58082
0.558265
0.533388
0.506371
0.477424
0.446795
0.41476
0.381602
0.34754
0.312756
0.2775
0.242158
0.207488
0.17387
0.141188
0.109258
0.0783664
0.0487314
0.0204934
-0.00624438
-0.0314041
-0.0549309
-0.0767908
-0.0969682
-0.115464
-0.132295
-0.147489
-0.161087
-0.173139
-0.183702
-0.192837
-0.200607
-0.207088
-0.212382
-0.216627
-0.219793
-0.221396
-0.222056
-0.222137
-0.221092
-0.219137
-0.216471
-0.21314
-0.208769
-0.203901
-0.198388
-0.191994
-0.185596
-0.178447
-0.170427
-0.162519
-0.154011
-0.144725
-0.134999
-0.125021
-0.115141
-0.104371
-0.0929683
-0.0815932
-0.0698676
-0.0577782
-0.04535
-0.0328777
-0.020673
-0.00897346
0.00311201
0.0153633
0.0283317
0.0407364
0.052372
0.0637358
0.0746225
0.0865466
-0.463114
-0.505961
-0.544623
-0.574809
-0.599186
-0.619494
-0.636299
-0.650045
-0.661313
-0.67082
-0.67941
-0.688036
-0.697727
-0.709525
-0.724454
-0.743503
-0.767637
-0.797823
-0.835047
-0.880288
-0.934478
-0.998424
-1.07275
-1.15787
-1.25392
-1.36086
-1.47841
-1.60617
-1.74363
-1.89022
-2.04534
-2.20838
-2.37872
-2.55576
-2.73887
-2.92742
-3.12075
-3.31815
-3.51886
-3.7221
-3.92698
-4.13258
-4.33789
-4.54186
-4.74335
-4.94117
-5.13409
-5.32082
-5.50004
-5.67039
-5.8305
-5.97899
-6.11449
-6.23564
-6.34114
-6.42972
-6.50019
-6.55144
-6.58248
-6.59249
-6.58076
-6.54668
-6.48985
-6.41002
-6.30713
-6.18135
-6.03303
-5.86279
-5.67144
-5.46003
-5.22987
-4.98244
-4.71949
-4.44294
-4.15492
-3.85771
-3.55377
-3.24564
-2.93598
-2.62747
-2.32282
-2.02468
-1.7356
-1.45802
-1.19414
-0.945936
-0.715071
-0.502863
-0.310242
-0.137726
0.0145924
0.147035
0.260305
0.355442
0.433752
0.496732
0.545992
0.583184
0.609998
0.627984
0.63843
0.642499
0.641203
0.635376
0.625685
0.612637
0.59658
0.577743
0.556319
0.532482
0.506404
0.478281
0.448344
0.41686
0.384114
0.350357
0.315828
0.280828
0.245745
0.211131
0.177334
0.144394
0.112299
0.0812578
0.0514644
0.0230573
-0.00386039
-0.029211
-0.0529391
-0.0750097
-0.0954064
-0.114129
-0.131194
-0.14663
-0.160475
-0.17278
-0.183601
-0.192999
-0.201039
-0.207794
-0.213354
-0.217806
-0.221125
-0.223106
-0.224105
-0.224337
-0.223548
-0.221855
-0.219398
-0.216212
-0.21217
-0.207518
-0.202195
-0.196181
-0.189862
-0.182876
-0.17523
-0.167409
-0.15906
-0.150058
-0.140562
-0.130796
-0.120923
-0.11036
-0.0992523
-0.0879798
-0.0763632
-0.0643951
-0.0521153
-0.0397542
-0.0275223
-0.0155531
-0.00327462
0.00920817
0.0222036
0.0347997
0.0468327
0.0586118
0.0699057
0.0820969
-0.338234
-0.389994
-0.43904
-0.476663
-0.506122
-0.530319
-0.550465
-0.567431
-0.582161
-0.595685
-0.609104
-0.623572
-0.640252
-0.660266
-0.684664
-0.714415
-0.750417
-0.793516
-0.844504
-0.904105
-0.972937
-1.05148
-1.14003
-1.23871
-1.34744
-1.46601
-1.59407
-1.73117
-1.87684
-2.03055
-2.19178
-2.36002
-2.53473
-2.71541
-2.90153
-3.09253
-3.28785
-3.48687
-3.68893
-3.89329
-4.09916
-4.3057
-4.51197
-4.71696
-4.9196
-5.11876
-5.31322
-5.50173
-5.68298
-5.85562
-6.01827
-6.16954
-6.30804
-6.43237
-6.54119
-6.6332
-6.70715
-6.76188
-6.79634
-6.80966
-6.80104
-6.76983
-6.71557
-6.63796
-6.53688
-6.41244
-6.26496
-6.095
-5.90332
-5.69093
-5.45909
-5.20925
-4.94311
-4.66258
-4.36976
-4.06693
-3.75653
-3.44113
-3.1234
-2.80607
-2.49191
-2.18364
-1.88393
-1.59531
-1.32014
-1.06053
-0.818301
-0.594932
-0.391514
-0.208715
-0.0467611
0.0945562
0.215857
0.318126
0.402648
0.470931
0.524625
0.565468
0.595244
0.615562
0.627817
0.633301
0.633122
0.628191
0.619239
0.606844
0.591415
0.573215
0.552443
0.529264
0.503838
0.47634
0.44698
0.416004
0.383685
0.350291
0.316089
0.281399
0.246596
0.212126
0.178313
0.145295
0.113156
0.0820768
0.0522346
0.0237674
-0.00322122
-0.0286536
-0.0524744
-0.0746485
-0.0951594
-0.114007
-0.131207
-0.146787
-0.160788
-0.173257
-0.184251
-0.193831
-0.202061
-0.20901
-0.214756
-0.219361
-0.222814
-0.225051
-0.226284
-0.226655
-0.226065
-0.22458
-0.222299
-0.219265
-0.215451
-0.210984
-0.20585
-0.200091
-0.193883
-0.187066
-0.179681
-0.171976
-0.163781
-0.155001
-0.145709
-0.136115
-0.126295
-0.115912
-0.105031
-0.0938695
-0.0823562
-0.0704988
-0.058341
-0.0460514
-0.033773
-0.0215819
-0.00912017
0.00355068
0.0165914
0.0293657
0.0417323
0.0538676
0.0655424
0.0778933
-0.221322
-0.279323
-0.336674
-0.38071
-0.414984
-0.443295
-0.467333
-0.488276
-0.507346
-0.525815
-0.544976
-0.566124
-0.590518
-0.619328
-0.653606
-0.69427
-0.74211
-0.797804
-0.861926
-0.934938
-1.01718
-1.10886
-1.21004
-1.32065
-1.44049
-1.56926
-1.70658
-1.85205
-2.00523
-2.16565
-2.33287
-2.50644
-2.68592
-2.87087
-3.06081
-3.25528
-3.45374
-3.65564
-3.86037
-4.06725
-4.27555
-4.48445
-4.69308
-4.90046
-5.10557
-5.30729
-5.50444
-5.69579
-5.88002
-6.0558
-6.22173
-6.37642
-6.51843
-6.64637
-6.75885
-6.85452
-6.93209
-6.99037
-7.02824
-7.04476
-7.0391
-7.01057
-6.95863
-6.88293
-6.78332
-6.65985
-6.51279
-6.34264
-6.15014
-5.93624
-5.70216
-5.44932
-5.17938
-4.89421
-4.5959
-4.28672
-3.9691
-3.64562
-3.31898
-2.99196
-2.66737
-2.34804
-2.03674
-1.73612
-1.44868
-1.1767
-0.92218
-0.68678
-0.471767
-0.277979
-0.105791
0.0448792
0.174561
0.284184
0.375013
0.448574
0.506574
0.550864
0.583304
0.605582
0.619245
0.625709
0.626182
0.621667
0.612969
0.60074
0.585458
0.567439
0.546908
0.524038
0.498984
0.471904
0.442985
0.412448
0.380544
0.347541
0.313719
0.279394
0.244921
0.210684
0.176995
0.144048
0.111987
0.0809834
0.0512038
0.022785
-0.00416832
-0.0295784
-0.0533899
-0.0755681
-0.0960964
-0.114975
-0.13222
-0.147858
-0.161931
-0.174485
-0.185577
-0.195265
-0.203614
-0.210689
-0.216555
-0.221262
-0.224822
-0.227233
-0.228633
-0.22912
-0.228677
-0.22735
-0.225213
-0.222316
-0.218679
-0.214366
-0.209398
-0.203833
-0.197744
-0.191082
-0.1839
-0.176318
-0.168258
-0.159658
-0.150554
-0.141112
-0.131369
-0.121133
-0.11043
-0.0993799
-0.0879643
-0.0762032
-0.064138
-0.0518906
-0.03956
-0.0271926
-0.0145703
-0.00173704
0.0113753
0.0243217
0.0369751
0.0494197
0.0614538
0.0738801
-0.122709
-0.18453
-0.247306
-0.295985
-0.334253
-0.366373
-0.394314
-0.419463
-0.443227
-0.467025
-0.492258
-0.520291
-0.552417
-0.589815
-0.63351
-0.684353
-0.743025
-0.810051
-0.885815
-0.97057
-1.06445
-1.16746
-1.27952
-1.40042
-1.5299
-1.66763
-1.81325
-1.96636
-2.12656
-2.29347
-2.46669
-2.64582
-2.83048
-3.02027
-3.21477
-3.41353
-3.61609
-3.8219
-4.03041
-4.24095
-4.45284
-4.66529
-4.87745
-5.08837
-5.29705
-5.50239
-5.70323
-5.89834
-6.08641
-6.2661
-6.43601
-6.59471
-6.74078
-6.87278
-6.98928
-7.08891
-7.17034
-7.23232
-7.2737
-7.29348
-7.29079
-7.2649
-7.21521
-7.14134
-7.04308
-6.92044
-6.77365
-6.60315
-6.40964
-6.19404
-5.95749
-5.70141
-5.4274
-5.13732
-4.8332
-4.51732
-4.19208
-3.86009
-3.52405
-3.18678
-2.85116
-2.52009
-2.19644
-1.88301
-1.58246
-1.29723
-1.02953
-0.781208
-0.553743
-0.348162
-0.165018
-0.0043701
0.134203
0.251564
0.348961
0.42794
0.490281
0.537949
0.572895
0.596913
0.611728
0.618879
0.619688
0.615259
0.60648
0.594075
0.578597
0.560424
0.539818
0.516975
0.492054
0.465206
0.436597
0.406424
0.374913
0.342318
0.308912
0.275002
0.240921
0.207013
0.173577
0.140837
0.10897
0.0781523
0.0485438
0.020279
-0.00653719
-0.0318263
-0.0555333
-0.0776234
-0.0980805
-0.116905
-0.134113
-0.149733
-0.163803
-0.176372
-0.187494
-0.197228
-0.205634
-0.212773
-0.218705
-0.223474
-0.227107
-0.229633
-0.231147
-0.231727
-0.231391
-0.230181
-0.228162
-0.225383
-0.221883
-0.217704
-0.21288
-0.207468
-0.201502
-0.194981
-0.187961
-0.180499
-0.172562
-0.164117
-0.155183
-0.145877
-0.136221
-0.126111
-0.11555
-0.104606
-0.0932815
-0.0816025
-0.0696062
-0.0573808
-0.0449974
-0.0324872
-0.0197242
-0.00674581
0.00645895
0.019574
0.0324815
0.0452005
0.0575773
0.0700163
-0.0476971
-0.111352
-0.17642
-0.227609
-0.268658
-0.303866
-0.33529
-0.36442
-0.39275
-0.421758
-0.452869
-0.487451
-0.526781
-0.572009
-0.62411
-0.683873
-0.751888
-0.828565
-0.914155
-1.00877
-1.11239
-1.22492
-1.34616
-1.47584
-1.61367
-1.75929
-1.91236
-2.0725
-2.23936
-2.41257
-2.59178
-2.77664
-2.9668
-3.16187
-3.36148
-3.5652
-3.77258
-3.98312
-4.19625
-4.41136
-4.62777
-4.84469
-5.06131
-5.27669
-5.48984
-5.69966
-5.90501
-6.10465
-6.29727
-6.48153
-6.65601
-6.81928
-6.96987
-7.10633
-7.22721
-7.33109
-7.41662
-7.48251
-7.52755
-7.55071
-7.55109
-7.5279
-7.48053
-7.40854
-7.31168
-7.18991
-7.04342
-6.87262
-6.67815
-6.46089
-6.22194
-5.96267
-5.68465
-5.38969
-5.07981
-4.75722
-4.42435
-4.08376
-3.73819
-3.39047
-3.04353
-2.70035
-2.36391
-2.03712
-1.72282
-1.42363
-1.14197
-0.879921
-0.639182
-0.421007
-0.226151
-0.0548464
0.0931976
0.218765
0.323071
0.407689
0.474495
0.525544
0.5629
0.588534
0.604329
0.611965
0.612896
0.608332
0.599253
0.586456
0.570564
0.552019
0.531129
0.508117
0.483157
0.4564
0.427999
0.398129
0.366991
0.334817
0.301864
0.268421
0.234799
0.201312
0.168248
0.135841
0.104286
0.0737611
0.0444272
0.0164169
-0.0101647
-0.0352399
-0.0587532
-0.0806702
-0.100975
-0.119669
-0.136767
-0.152298
-0.166301
-0.178823
-0.189917
-0.19964
-0.208049
-0.215202
-0.221154
-0.225949
-0.229623
-0.232217
-0.233806
-0.234454
-0.234196
-0.233076
-0.23115
-0.228472
-0.225083
-0.221019
-0.216321
-0.211037
-0.205189
-0.198799
-0.191916
-0.184569
-0.17675
-0.168442
-0.159657
-0.150476
-0.140914
-0.130913
-0.120471
-0.109624
-0.0983832
-0.0867737
-0.0748284
-0.0626114
-0.0501765
-0.0375475
-0.0246583
-0.0115454
0.00176793
0.0150501
0.0281898
0.0411587
0.0538662
0.0662746
0.00235671
-0.0608456
-0.125293
-0.176936
-0.219403
-0.256726
-0.290901
-0.323432
-0.355819
-0.389522
-0.425931
-0.466365
-0.512046
-0.564062
-0.623336
-0.690593
-0.766361
-0.850977
-0.944609
-1.04728
-1.15891
-1.2793
-1.40822
-1.54535
-1.69038
-1.84295
-2.00273
-2.16935
-2.34248
-2.52178
-2.70692
-2.89757
-3.09339
-3.29403
-3.49912
-3.70824
-3.92096
-4.13679
-4.35517
-4.57549
-4.79707
-5.01916
-5.24093
-5.46145
-5.67973
-5.89469
-6.10517
-6.30992
-6.50765
-6.69698
-6.87649
-7.04473
-7.20022
-7.34147
-7.467
-7.57538
-7.66522
-7.7352
-7.78406
-7.81073
-7.81429
-7.79393
-7.74899
-7.679
-7.58367
-7.46293
-7.31693
-7.14602
-6.95081
-6.73213
-6.49107
-6.22891
-5.9472
-5.64769
-5.33237
-5.00342
-4.66323
-4.31433
-3.95947
-3.60148
-3.24333
-2.88805
-2.53871
-2.19835
-1.86996
-1.55637
-1.2602
-0.983781
-0.729077
-0.497592
-0.29032
-0.1077
0.0503999
0.184659
0.296247
0.38676
0.458161
0.512633
0.552361
0.579524
0.596172
0.60415
0.605053
0.600213
0.590706
0.577399
0.560984
0.541963
0.520685
0.497403
0.472311
0.445567
0.417317
0.387718
0.35695
0.32522
0.292764
0.259847
0.226756
0.193781
0.161196
0.129237
0.0981062
0.0679832
0.0390256
0.0113655
-0.0148904
-0.0396645
-0.0629012
-0.0845666
-0.104645
-0.123138
-0.140061
-0.155442
-0.16932
-0.181741
-0.192755
-0.202418
-0.210785
-0.217911
-0.223845
-0.228634
-0.232319
-0.234947
-0.236579
-0.237273
-0.237071
-0.23602
-0.234171
-0.231578
-0.228282
-0.22432
-0.219733
-0.214562
-0.208827
-0.202558
-0.195796
-0.188562
-0.180855
-0.172673
-0.164024
-0.15496
-0.145492
-0.135592
-0.125253
-0.114495
-0.103329
-0.0917784
-0.0798706
-0.0676531
-0.0551683
-0.042437
-0.0294316
-0.0161899
-0.00275557
0.0106939
0.0240521
0.0372545
0.0502844
0.0626375
0.0296608
-0.0307474
-0.0920955
-0.142326
-0.184822
-0.223162
-0.259181
-0.294326
-0.330035
-0.367699
-0.408628
-0.454058
-0.505126
-0.562846
-0.628076
-0.701488
-0.783564
-0.874598
-0.974719
-1.08391
-1.20204
-1.3289
-1.46421
-1.60765
-1.75889
-1.91759
-2.08338
-2.25595
-2.43495
-2.62007
-2.81097
-3.00735
-3.20887
-3.41518
-3.62592
-3.84068
-4.05903
-4.28048
-4.50447
-4.7304
-4.95758
-5.18527
-5.41263
-5.63874
-5.86259
-6.08311
-6.29912
-6.50937
-6.71256
-6.90728
-7.09213
-7.2656
-7.42622
-7.57246
-7.70282
-7.81585
-7.91012
-7.9843
-8.0371
-8.06738
-8.07423
-8.05681
-8.01443
-7.9466
-7.85298
-7.73348
-7.58821
-7.41749
-7.22188
-7.00219
-6.75943
-6.49487
-6.21
-5.90652
-5.58637
-5.25169
-4.9048
-4.54825
-4.1847
-3.81701
-3.44816
-3.0812
-2.71927
-2.36554
-2.02311
-1.69502
-1.3841
-1.09296
-0.823821
-0.578485
-0.35822
-0.163711
0.00497629
0.148382
0.267608
0.364264
0.440401
0.498333
0.540423
0.569045
0.586446
0.594655
0.595428
0.59023
0.580236
0.566385
0.549431
0.529927
0.508256
0.484699
0.459468
0.43273
0.40463
0.375314
0.344941
0.313696
0.281792
0.249469
0.216988
0.184616
0.152612
0.121208
0.0906073
0.0609881
0.0325048
0.00528929
-0.0205537
-0.044946
-0.0678302
-0.0891728
-0.108958
-0.127188
-0.143877
-0.159054
-0.172756
-0.185028
-0.195919
-0.205481
-0.213767
-0.220829
-0.226716
-0.231472
-0.235143
-0.237777
-0.23943
-0.240152
-0.23999
-0.238992
-0.237207
-0.234686
-0.231473
-0.227603
-0.223117
-0.21805
-0.212424
-0.206269
-0.199621
-0.192497
-0.184901
-0.176837
-0.168313
-0.159361
-0.149989
-0.140183
-0.129938
-0.119262
-0.108165
-0.0966645
-0.0847848
-0.0725611
-0.0600279
-0.0472052
-0.0340898
-0.0207219
-0.00715725
0.00646097
0.0200303
0.0334565
0.0468027
0.0590926
0.0390505
-0.0165846
-0.0727862
-0.119965
-0.161182
-0.199456
-0.236388
-0.273312
-0.311561
-0.352414
-0.397074
-0.446667
-0.502232
-0.564696
-0.634845
-0.7133
-0.800508
-0.896738
-1.0021
-1.11657
-1.24001
-1.37219
-1.51284
-1.66163
-1.81823
-1.9823
-2.15348
-2.33146
-2.51589
-2.70647
-2.90288
-3.10479
-3.31187
-3.52379
-3.74017
-3.9606
-4.18465
-4.41183
-4.64157
-4.87326
-5.10623
-5.3397
-5.57285
-5.80474
-6.03436
-6.26061
-6.48233
-6.69824
-6.90703
-7.10728
-7.29755
-7.47635
-7.64216
-7.79344
-7.92868
-8.04638
-8.14512
-8.22351
-8.28028
-8.31424
-8.32444
-8.31003
-8.27033
-8.2048
-8.11309
-7.99508
-7.85083
-7.68066
-7.48508
-7.26485
-7.02096
-6.75463
-6.46729
-6.1606
-5.83645
-5.49691
-5.14427
-4.781
-4.40974
-4.03331
-3.65466
-3.27688
-2.90313
-2.53666
-2.18069
-1.83843
-1.51294
-1.20707
-0.923335
-0.663861
-0.430225
-0.223401
-0.0436982
0.109237
0.236403
0.339403
0.420424
0.481869
0.526307
0.556326
0.574395
0.582751
0.583329
0.577737
0.567255
0.552896
0.535466
0.515558
0.493581
0.469833
0.444539
0.417875
0.389987
0.361013
0.331097
0.300405
0.269125
0.237474
0.205689
0.174014
0.14269
0.111942
0.0819693
0.0529484
0.0250319
-0.00165154
-0.0269997
-0.0509325
-0.0733933
-0.0943485
-0.113782
-0.131693
-0.148098
-0.163023
-0.176506
-0.188588
-0.199318
-0.208744
-0.216918
-0.223887
-0.229701
-0.234403
-0.23804
-0.24066
-0.242315
-0.243053
-0.24292
-0.241964
-0.240234
-0.237779
-0.234641
-0.230857
-0.226465
-0.221497
-0.215977
-0.209933
-0.203396
-0.196382
-0.188897
-0.180949
-0.172543
-0.1637
-0.154426
-0.144713
-0.134556
-0.123957
-0.112923
-0.101468
-0.0896106
-0.0773774
-0.0647974
-0.0518908
-0.0386696
-0.0251764
-0.0114741
0.00231545
0.0160929
0.0297387
0.0433967
0.0556298
0.0369065
-0.0123052
-0.0617326
-0.104509
-0.143324
-0.180585
-0.21762
-0.255604
-0.295724
-0.339121
-0.386865
-0.439962
-0.499338
-0.565823
-0.640125
-0.722811
-0.814293
-0.914824
-1.02451
-1.14333
-1.27116
-1.40777
-1.5529
-1.70624
-1.86746
-2.03623
-2.21219
-2.39503
-2.58443
-2.78005
-2.98158
-3.18871
-3.40109
-3.61838
-3.84021
-4.06616
-4.29577
-4.52857
-4.76397
-5.00136
-5.24005
-5.47927
-5.71816
-5.95579
-6.19113
-6.42309
-6.65046
-6.87198
-7.0863
-7.292
-7.48763
-7.67166
-7.84256
-7.99879
-8.1388
-8.26109
-8.3642
-8.44675
-8.50744
-8.54506
-8.55863
-8.5473
-8.51037
-8.44729
-8.3577
-8.24143
-8.09855
-7.92932
-7.73424
-7.51403
-7.26965
-7.00226
-6.71326
-6.40426
-6.07708
-5.73375
-5.37648
-5.00768
-4.62995