/*--------------------------------*- C++ -*----------------------------------*\
  =========                 |
  \\      /  F ield         | OpenFOAM: The Open Source CFD Toolbox
   \\    /   O peration     | Website:  https://openfoam.org
    \\  /    A nd           | Version:  9
     \\/     M anipulation  |
\*---------------------------------------------------------------------------*/
FoamFile
{
    format      ascii;
    class       surfaceScalarField;
    location    "0.25";
    object      phi;
}
// * * * * * * * * * * * * * * * * * * * * * * * * * * * * * * * * * * * * * //

dimensions      [0 3 -1 0 0 0 0];

internalField   nonuniform List<scalar> 
24170
(
3.05133e-07
1.37074e-08
2.65491e-07
3.9642e-08
2.34623e-07
3.08685e-08
2.09715e-07
2.49078e-08
1.9028e-07
1.94347e-08
1.75232e-07
1.50478e-08
1.62531e-07
1.27014e-08
1.50783e-07
1.17483e-08
1.39309e-07
1.14738e-08
1.27809e-07
1.14998e-08
1.16157e-07
1.16517e-08
1.04351e-07
1.18067e-08
9.25283e-08
1.18225e-08
8.10366e-08
1.14918e-08
7.05849e-08
1.04517e-08
6.2999e-08
7.58592e-09
6.35709e-08
-5.71913e-10
1.96672e-08
4.39037e-08
3.46134e-07
9.29851e-09
3.36988e-07
4.87876e-08
3.21496e-07
4.63608e-08
3.05464e-07
4.094e-08
2.90089e-07
3.48089e-08
2.75747e-07
2.939e-08
2.62309e-07
2.61395e-08
2.493e-07
2.47571e-08
2.36255e-07
2.45192e-08
2.22814e-07
2.49412e-08
2.08725e-07
2.57401e-08
1.93843e-07
2.66892e-08
1.78129e-07
2.75364e-08
1.61693e-07
2.79271e-08
1.4475e-07
2.73954e-08
1.27912e-07
2.44238e-08
1.08795e-07
1.85448e-08
4.9541e-08
7.89213e-08
3.64827e-07
1.0723e-08
3.66208e-07
4.7407e-08
3.60403e-07
5.21656e-08
3.51313e-07
5.00303e-08
3.40315e-07
4.58064e-08
3.28402e-07
4.13027e-08
3.16179e-07
3.83624e-08
3.03732e-07
3.72043e-08
2.90889e-07
3.73629e-08
2.77405e-07
3.84251e-08
2.63045e-07
4.00994e-08
2.47609e-07
4.21256e-08
2.30928e-07
4.42177e-08
2.12851e-07
4.60034e-08
1.93172e-07
4.70749e-08
1.71339e-07
4.62571e-08
1.44371e-07
4.55126e-08
7.86359e-08
1.15276e-07
3.91677e-07
1.15849e-08
3.94259e-07
4.48253e-08
3.9228e-07
5.41439e-08
3.86881e-07
5.54297e-08
3.78942e-07
5.37458e-08
3.69253e-07
5.09917e-08
3.58489e-07
4.91262e-08
3.46954e-07
4.87387e-08
3.34668e-07
4.96495e-08
3.21504e-07
5.15884e-08
3.07282e-07
5.43217e-08
2.91793e-07
5.76144e-08
2.74801e-07
6.12096e-08
2.56004e-07
6.48008e-08
2.34972e-07
6.81072e-08
2.10758e-07
7.04707e-08
1.81434e-07
7.48366e-08
1.06979e-07
1.53091e-07
4.20638e-07
1.16595e-08
4.2319e-07
4.22732e-08
4.2293e-07
5.44041e-08
4.19714e-07
5.86455e-08
4.13942e-07
5.95175e-08
4.06099e-07
5.88351e-08
3.9674e-07
5.84853e-08
3.86216e-07
5.92625e-08
3.74642e-07
6.12232e-08
3.6198e-07
6.42508e-08
3.48101e-07
6.82003e-08
3.32816e-07
7.28999e-08
3.15865e-07
7.81603e-08
2.9689e-07
8.37756e-08
2.754e-07
8.9598e-08
2.50486e-07
9.53847e-08
2.21137e-07
1.04185e-07
1.34587e-07
1.93529e-07
4.51101e-07
1.14677e-08
4.53528e-07
3.98459e-08
4.54151e-07
5.37815e-08
4.52315e-07
6.0481e-08
4.48102e-07
6.37307e-08
4.41748e-07
6.51892e-08
4.33656e-07
6.65773e-08
4.24144e-07
6.87739e-08
4.13361e-07
7.20063e-08
4.01319e-07
7.62932e-08
3.87935e-07
8.15846e-08
3.73047e-07
8.77873e-08
3.56414e-07
9.47939e-08
3.3769e-07
1.02499e-07
3.16428e-07
1.10859e-07
2.9192e-07
1.19893e-07
2.63792e-07
1.32314e-07
1.60949e-07
2.37429e-07
4.83495e-07
1.12446e-08
4.85748e-07
3.75932e-08
4.86807e-07
5.27218e-08
4.85849e-07
6.14389e-08
4.82757e-07
6.68233e-08
4.77589e-07
7.03565e-08
4.70609e-07
7.35581e-08
4.62069e-07
7.73134e-08
4.52114e-07
8.1961e-08
4.40782e-07
8.76257e-08
4.28024e-07
9.43428e-08
4.13715e-07
1.02096e-07
3.97653e-07
1.10856e-07
3.79557e-07
1.20595e-07
3.59082e-07
1.31335e-07
3.35759e-07
1.43216e-07
3.09651e-07
1.58421e-07
1.85469e-07
2.85131e-07
5.18168e-07
1.10349e-08
5.20174e-07
3.55872e-08
5.21398e-07
5.14972e-08
5.20985e-07
6.18524e-08
5.18696e-07
6.91125e-08
5.14471e-07
7.45815e-08
5.08455e-07
7.95742e-08
5.00832e-07
8.49362e-08
4.91724e-07
9.10687e-08
4.81178e-07
9.81716e-08
4.69173e-07
1.06348e-07
4.55623e-07
1.15647e-07
4.40383e-07
1.26095e-07
4.2326e-07
1.37719e-07
4.04036e-07
1.50558e-07
3.82474e-07
1.64778e-07
3.58912e-07
1.81983e-07
2.07635e-07
3.36746e-07
5.55331e-07
1.08372e-08
5.57046e-07
3.38726e-08
5.58271e-07
5.02719e-08
5.58181e-07
6.19427e-08
5.56469e-07
7.08248e-08
5.52997e-07
7.80532e-08
5.47822e-07
8.47497e-08
5.41063e-07
9.16945e-08
5.32817e-07
9.93153e-08
5.2313e-07
1.07858e-07
5.12005e-07
1.17473e-07
4.99398e-07
1.28254e-07
4.85228e-07
1.40264e-07
4.69399e-07
1.53548e-07
4.5182e-07
1.68137e-07
4.32448e-07
1.8415e-07
4.11767e-07
2.02664e-07
2.27053e-07
3.92349e-07
5.95164e-07
1.06505e-08
5.96584e-07
3.24529e-08
5.97718e-07
4.91384e-08
5.97807e-07
6.18531e-08
5.96515e-07
7.2117e-08
5.93659e-07
8.09094e-08
5.8923e-07
8.91784e-08
5.83298e-07
9.76263e-08
5.75933e-07
1.0668e-07
5.67183e-07
1.16608e-07
5.5707e-07
1.27586e-07
5.45594e-07
1.39731e-07
5.32739e-07
1.53119e-07
5.18498e-07
1.67789e-07
5.02896e-07
1.8374e-07
4.86034e-07
2.01012e-07
4.68448e-07
2.2025e-07
2.4344e-07
4.52061e-07
6.37859e-07
1.0473e-08
6.39006e-07
3.13054e-08
6.4001e-07
4.81351e-08
6.40197e-07
6.1666e-08
6.39226e-07
7.30878e-08
6.36895e-07
8.32399e-08
6.33154e-07
9.29195e-08
6.28034e-07
1.02747e-07
6.21585e-07
1.13129e-07
6.13859e-07
1.24334e-07
6.04898e-07
1.36547e-07
5.94742e-07
1.49887e-07
5.83438e-07
1.64424e-07
5.71055e-07
1.80172e-07
5.57709e-07
1.97086e-07
5.43596e-07
2.15124e-07
5.29245e-07
2.34602e-07
2.56605e-07
5.1608e-07
5.74233e-07
1.03234e-08
5.75019e-07
3.05193e-08
5.7577e-07
4.73838e-08
5.75981e-07
6.14557e-08
5.75372e-07
7.36965e-08
5.73775e-07
8.48366e-08
5.71128e-07
9.55664e-08
5.67438e-07
1.06437e-07
5.6274e-07
1.17826e-07
5.57081e-07
1.29994e-07
5.50513e-07
1.43115e-07
5.43098e-07
1.57301e-07
5.34917e-07
1.72605e-07
5.26075e-07
1.89014e-07
5.16719e-07
2.06442e-07
5.0706e-07
2.24783e-07
4.97509e-07
2.44153e-07
2.65121e-07
4.88992e-07
6.99978e-07
1.01606e-08
7.00741e-07
2.9757e-08
7.01511e-07
4.66134e-08
7.01815e-07
6.11522e-08
7.01359e-07
7.41518e-08
6.99957e-07
8.62394e-08
6.97526e-07
9.79968e-08
6.94064e-07
1.09899e-07
6.89605e-07
1.22285e-07
6.8421e-07
1.3539e-07
6.77955e-07
1.4937e-07
6.70942e-07
1.64315e-07
6.63297e-07
1.80251e-07
6.55181e-07
1.97129e-07
6.46798e-07
2.14825e-07
6.38409e-07
2.33173e-07
6.30439e-07
2.52123e-07
2.71877e-07
6.23683e-07
8.53275e-07
9.97003e-09
8.54032e-07
2.89998e-08
8.54868e-07
4.57777e-08
8.55351e-07
6.06696e-08
8.55193e-07
7.43098e-08
8.542e-07
8.72325e-08
8.52281e-07
9.99157e-08
8.49426e-07
1.12753e-07
8.45677e-07
1.26034e-07
8.41112e-07
1.39955e-07
8.35839e-07
1.54642e-07
8.30001e-07
1.70153e-07
8.23775e-07
1.86477e-07
8.17374e-07
2.0353e-07
8.11045e-07
2.21154e-07
8.05079e-07
2.39139e-07
7.99879e-07
2.57323e-07
2.75675e-07
7.96081e-07
1.04017e-06
9.71962e-09
1.04101e-06
2.81604e-08
1.04206e-06
4.47309e-08
1.04293e-06
5.97978e-08
1.04336e-06
7.3883e-08
1.04315e-06
8.7435e-08
1.04223e-06
1.00837e-07
1.04059e-06
1.144e-07
1.03827e-06
1.28352e-07
1.03538e-06
1.42844e-07
1.03206e-06
1.57958e-07
1.0285e-06
1.73713e-07
1.02492e-06
1.90063e-07
1.02155e-06
2.06893e-07
1.01868e-06
2.24022e-07
1.0166e-06
2.41223e-07
1.01565e-06
2.58278e-07
2.7503e-07
1.01629e-06
1.26805e-06
9.34542e-09
1.26918e-06
2.70311e-08
1.27076e-06
4.31516e-08
1.27246e-06
5.81042e-08
1.27401e-06
7.23243e-08
1.27527e-06
8.61769e-08
1.27615e-06
9.99576e-08
1.27666e-06
1.13896e-07
1.27685e-06
1.28153e-07
1.27687e-06
1.42824e-07
1.27689e-06
1.57946e-07
1.2771e-06
1.73498e-07
1.27776e-06
1.89403e-07
1.27913e-06
2.05528e-07
1.28146e-06
2.21689e-07
1.28502e-06
2.37664e-07
1.29007e-06
2.53227e-07
2.68183e-07
1.29692e-06
1.54594e-06
8.72566e-09
1.54774e-06
2.52252e-08
1.55045e-06
4.04421e-08
1.55375e-06
5.48037e-08
1.5574e-06
6.86752e-08
1.56124e-06
8.23361e-08
1.56521e-06
9.59951e-08
1.5693e-06
1.098e-07
1.57361e-06
1.23843e-07
1.57828e-06
1.38161e-07
1.58348e-06
1.52746e-07
1.58943e-06
1.67546e-07
1.59637e-06
1.82463e-07
1.60453e-06
1.97364e-07
1.61414e-06
2.12076e-07
1.6254e-06
2.26405e-07
1.63848e-06
2.40153e-07
2.53139e-07
1.65352e-06
1.88484e-06
7.6448e-09
1.88797e-06
2.2101e-08
1.8928e-06
3.56101e-08
1.89899e-06
4.86142e-08
1.90626e-06
6.14079e-08
1.91442e-06
7.41752e-08
1.92338e-06
8.70307e-08
1.93315e-06
1.00036e-07
1.94378e-06
1.13211e-07
1.9554e-06
1.26536e-07
1.96819e-06
1.39963e-07
1.98232e-06
1.53416e-07
1.99799e-06
1.66792e-07
2.01538e-06
1.79968e-07
2.03466e-06
1.92798e-07
2.05594e-06
2.0513e-07
2.07928e-06
2.16807e-07
2.27692e-07
2.10473e-06
2.29824e-06
5.74179e-09
2.30368e-06
1.66548e-08
2.31216e-06
2.71304e-08
2.32316e-06
3.76161e-08
2.33626e-06
4.83077e-08
2.35117e-06
5.92629e-08
2.36773e-06
7.0478e-08
2.38585e-06
8.19102e-08
2.40557e-06
9.34933e-08
2.42696e-06
1.05149e-07
2.45012e-06
1.16793e-07
2.47521e-06
1.28334e-07
2.50232e-06
1.39673e-07
2.53159e-06
1.50706e-07
2.56306e-06
1.61322e-07
2.59678e-06
1.71412e-07
2.63272e-06
1.80869e-07
1.89608e-07
2.6708e-06
1.68289e-06
3.91796e-09
1.68811e-06
1.14426e-08
1.69619e-06
1.90466e-08
1.7066e-06
2.72112e-08
1.71889e-06
3.60102e-08
1.73279e-06
4.53677e-08
1.7481e-06
5.51688e-08
1.76473e-06
6.52757e-08
1.78267e-06
7.55507e-08
1.80195e-06
8.58708e-08
1.82262e-06
9.61278e-08
1.84473e-06
1.06224e-07
1.86834e-06
1.16067e-07
1.89347e-06
1.25569e-07
1.92015e-06
1.34644e-07
1.94835e-06
1.43212e-07
1.97802e-06
1.51198e-07
1.58542e-07
2.00909e-06
1.46531e-06
2.06766e-09
1.47073e-06
6.01845e-09
1.47909e-06
1.06882e-08
1.48969e-06
1.66143e-08
1.50203e-06
2.36629e-08
1.51581e-06
3.15916e-08
1.53082e-06
4.01603e-08
1.54697e-06
4.9124e-08
1.56425e-06
5.82709e-08
1.58268e-06
6.74379e-08
1.60231e-06
7.65e-08
1.62318e-06
8.53578e-08
1.64531e-06
9.39286e-08
1.66874e-06
1.02141e-07
1.69346e-06
1.09932e-07
1.71943e-06
1.17242e-07
1.7466e-06
1.24019e-07
1.30228e-07
1.77492e-06
1.27574e-06
3.41808e-10
1.28116e-06
5.92832e-10
1.28945e-06
2.39879e-09
1.29974e-06
6.32919e-09
1.31151e-06
1.18968e-08
1.32442e-06
1.86727e-08
1.33831e-06
2.62769e-08
1.35309e-06
3.43381e-08
1.36879e-06
4.25698e-08
1.38545e-06
5.0778e-08
1.40312e-06
5.88301e-08
1.42185e-06
6.66319e-08
1.44166e-06
7.41147e-08
1.46258e-06
8.12257e-08
1.48459e-06
8.79214e-08
1.50767e-06
9.4164e-08
1.53177e-06
9.99215e-08
1.05173e-07
1.55682e-06
1.11052e-06
-1.08189e-09
1.11581e-06
-4.69691e-09
1.1238e-06
-5.59139e-09
1.13343e-06
-3.30802e-09
1.14421e-06
1.11735e-09
1.15581e-06
7.07593e-09
1.16807e-06
1.40209e-08
1.18098e-06
2.14289e-08
1.1946e-06
2.89449e-08
1.20902e-06
3.63603e-08
1.2243e-06
4.35479e-08
1.2405e-06
5.04288e-08
1.25766e-06
5.6955e-08
1.27579e-06
6.30953e-08
1.29489e-06
6.88275e-08
1.31492e-06
7.41333e-08
1.33584e-06
7.89984e-08
8.34147e-08
1.3576e-06
9.66479e-07
-2.03908e-09
9.71565e-07
-9.7834e-09
9.79095e-07
-1.31208e-08
9.87845e-07
-1.20588e-08
9.97347e-07
-8.38447e-09
1.00728e-06
-2.86185e-09
1.01757e-06
3.73834e-09
1.02828e-06
1.07157e-08
1.03956e-06
1.76683e-08
1.05152e-06
2.44002e-08
1.06426e-06
3.08088e-08
1.07784e-06
3.68442e-08
1.09231e-06
4.24877e-08
1.10767e-06
4.77339e-08
1.12391e-06
5.25824e-08
1.14101e-06
5.70336e-08
1.15892e-06
6.10888e-08
6.475e-08
1.17759e-06
8.40831e-07
-2.33491e-09
8.45773e-07
-1.47249e-08
8.52704e-07
-2.00523e-08
8.60327e-07
-1.96818e-08
8.68244e-07
-1.63014e-08
8.76183e-07
-1.08011e-08
8.84185e-07
-4.26387e-09
8.92469e-07
2.43208e-09
9.01249e-07
8.88801e-09
9.10688e-07
1.49615e-08
9.20897e-07
2.05997e-08
9.31943e-07
2.57979e-08
9.43855e-07
3.05756e-08
9.56634e-07
3.49557e-08
9.70257e-07
3.89589e-08
9.84689e-07
4.26014e-08
9.9988e-07
4.58978e-08
4.88575e-08
1.01577e-06
7.30836e-07
-1.44246e-09
7.36003e-07
-1.98916e-08
7.42184e-07
-2.62335e-08
7.48315e-07
-2.58132e-08
7.54196e-07
-2.21823e-08
7.59704e-07
-1.63091e-08
7.65105e-07
-9.66489e-09
7.70777e-07
-3.23935e-09
7.77006e-07
2.6586e-09
7.83976e-07
7.99107e-09
7.91794e-07
1.2782e-08
8.00506e-07
1.7086e-08
8.10115e-07
2.09663e-08
8.20599e-07
2.44722e-08
8.31917e-07
2.76405e-08
8.4402e-07
3.04983e-08
8.5685e-07
3.30687e-08
3.5366e-08
8.70341e-07
6.33891e-07
1.67348e-09
6.40002e-07
-2.60025e-08
6.45025e-07
-3.12569e-08
6.49007e-07
-2.97949e-08
6.52138e-07
-2.53137e-08
6.54642e-07
-1.88129e-08
6.57105e-07
-1.21284e-08
6.60049e-07
-6.18283e-09
6.63777e-07
-1.06977e-09
6.68445e-07
3.32291e-09
6.74118e-07
7.10963e-09
6.80791e-07
1.04127e-08
6.88422e-07
1.33356e-08
6.96951e-07
1.59427e-08
7.06315e-07
1.82773e-08
7.16445e-07
2.03679e-08
7.27276e-07
2.22381e-08
2.39072e-08
7.38734e-07
5.49548e-07
6.67205e-09
5.56395e-07
-3.28495e-08
5.5844e-07
-3.33017e-08
5.58721e-07
-3.00762e-08
5.57869e-07
-2.44616e-08
5.56601e-07
-1.75448e-08
5.55803e-07
-1.13308e-08
5.5601e-07
-6.38967e-09
5.57414e-07
-2.47382e-09
5.6005e-07
6.86592e-10
5.63905e-07
3.2547e-09
5.68883e-07
5.43443e-09
5.74875e-07
7.3438e-09
5.8178e-07
9.03802e-09
5.89507e-07
1.05498e-08
5.97977e-07
1.18984e-08
6.07118e-07
1.30972e-08
1.41673e-08
6.16858e-07
4.8714e-07
2.29281e-09
4.85185e-07
-3.08948e-08
4.78057e-07
-2.61738e-08
4.70114e-07
-2.21327e-08
4.62719e-07
-1.70663e-08
4.56584e-07
-1.14101e-08
4.52297e-07
-7.04431e-09
4.49945e-07
-4.03754e-09
4.49353e-07
-1.8813e-09
4.50307e-07
-2.67712e-10
4.52692e-07
8.6956e-10
4.56269e-07
1.85748e-09
4.60864e-07
2.74912e-09
4.66347e-07
3.55519e-09
4.72616e-07
4.28026e-09
4.79586e-07
4.92878e-09
4.87185e-07
5.49829e-09
5.99918e-09
4.95353e-07
4.2256e-07
3.91666e-07
3.65492e-07
3.43359e-07
3.26293e-07
3.14883e-07
3.07838e-07
3.03801e-07
3.0192e-07
3.01652e-07
3.02521e-07
3.04379e-07
3.07128e-07
3.10683e-07
3.14963e-07
3.19892e-07
3.25391e-07
3.3139e-07
5.68901e-08
-5.68901e-08
1.33166e-07
-7.6276e-08
2.12988e-07
-7.98218e-08
2.9596e-07
-8.29724e-08
3.77123e-07
-8.11625e-08
4.47931e-07
-7.08081e-08
5.06307e-07
-5.83757e-08
5.52035e-07
-4.57281e-08
5.83603e-07
-3.15685e-08
5.94586e-07
-1.09831e-08
5.907e-07
3.88578e-09
5.74557e-07
1.61436e-08
5.5181e-07
2.27467e-08
5.25734e-07
2.60762e-08
4.91964e-07
3.37704e-08
4.55161e-07
3.68024e-08
4.21016e-07
3.41453e-08
3.88576e-07
3.24403e-08
3.53271e-07
3.53048e-08
3.15077e-07
3.81936e-08
2.74235e-07
4.08419e-08
2.29753e-07
4.44827e-08
1.80192e-07
4.95603e-08
1.2408e-07
5.61119e-08
6.01517e-08
6.39287e-08
-1.27395e-08
7.28913e-08
-9.59903e-08
8.32508e-08
-1.90682e-07
9.46914e-08
-2.97283e-07
1.06601e-07
-4.15915e-07
1.18632e-07
-5.46239e-07
1.30324e-07
-6.87435e-07
1.41196e-07
-8.38244e-07
1.50809e-07
-9.97049e-07
1.58805e-07
-1.16198e-06
1.64932e-07
-1.33104e-06
1.69057e-07
-1.5022e-06
1.71159e-07
-1.67351e-06
1.71311e-07
-1.84317e-06
1.69664e-07
-2.00959e-06
1.66418e-07
-2.17139e-06
1.61803e-07
-2.32744e-06
1.56052e-07
-2.47684e-06
1.49393e-07
-2.61887e-06
1.42032e-07
-2.75302e-06
1.34146e-07
-2.8789e-06
1.25881e-07
-2.99625e-06
1.1735e-07
-3.10488e-06
1.08633e-07
-3.20467e-06
9.97863e-08
-3.29551e-06
9.08405e-08
-3.37731e-06
8.18066e-08
-3.44999e-06
7.26801e-08
-3.51344e-06
6.34465e-08
-3.56753e-06
5.40877e-08
-3.61211e-06
4.45839e-08
-3.64702e-06
3.49121e-08
-3.67208e-06
2.50543e-08
-3.68713e-06
1.50542e-08
-3.69219e-06
5.05941e-09
-3.68814e-06
-4.05493e-09
-3.6759e-06
-1.22344e-08
-3.656e-06
-1.98998e-08
-3.62867e-06
-2.73345e-08
-3.59398e-06
-3.46856e-08
-3.55197e-06
-4.20096e-08
-3.50265e-06
-4.93219e-08
-3.44603e-06
-5.66171e-08
-3.38216e-06
-6.38782e-08
-3.31107e-06
-7.10817e-08
-3.23288e-06
-7.8199e-08
-3.14768e-06
-8.51971e-08
-3.05564e-06
-9.20393e-08
-2.95695e-06
-9.86852e-08
-2.85186e-06
-1.05091e-07
-2.74066e-06
-1.11208e-07
-2.62367e-06
-1.16985e-07
-2.5013e-06
-1.22368e-07
-2.37401e-06
-1.27297e-07
-2.2423e-06
-1.3171e-07
-2.10675e-06
-1.35542e-07
-1.96803e-06
-1.38726e-07
-1.82683e-06
-1.41194e-07
-1.68396e-06
-1.42877e-07
-1.54025e-06
-1.43707e-07
-1.39663e-06
-1.43622e-07
-1.25407e-06
-1.42562e-07
-1.11359e-06
-1.40478e-07
-9.76258e-07
-1.37331e-07
-8.43161e-07
-1.33097e-07
-7.15392e-07
-1.27769e-07
-5.94028e-07
-1.21364e-07
-4.80106e-07
-1.13922e-07
-3.74593e-07
-1.05513e-07
-2.78354e-07
-9.6239e-08
-1.92123e-07
-8.62314e-08
-1.1647e-07
-7.5653e-08
-5.17771e-08
-6.46924e-08
1.76583e-09
-5.3543e-08
4.42741e-08
-4.25083e-08
7.60983e-08
-3.18242e-08
9.77809e-08
-2.16825e-08
1.10063e-07
-1.22821e-08
1.13824e-07
-3.76099e-09
1.10154e-07
3.66971e-09
1.00232e-07
9.92183e-09
8.51837e-08
1.50487e-08
6.59818e-08
1.92019e-08
4.40799e-08
2.19019e-08
1.99638e-08
2.41161e-08
-6.12974e-09
2.60936e-08
-3.38085e-08
2.76787e-08
-6.25988e-08
2.87904e-08
-9.2129e-08
2.95302e-08
-1.22147e-07
3.00179e-08
-1.52708e-07
3.05609e-08
-1.82643e-07
2.9935e-08
-2.12795e-07
3.01518e-08
-2.4206e-07
2.92652e-08
-2.70254e-07
2.81942e-08
-2.97582e-07
2.73276e-08
-3.27311e-07
2.97297e-08
-3.56008e-07
2.8697e-08
-3.80543e-07
2.45345e-08
-4.04603e-07
2.40596e-08
-4.27548e-07
2.29456e-08
-4.49211e-07
2.16625e-08
-4.69514e-07
2.03038e-08
-4.88418e-07
1.89035e-08
-5.05896e-07
1.74777e-08
-5.21933e-07
1.60374e-08
-5.36524e-07
1.45912e-08
-5.49671e-07
1.31463e-08
-5.61379e-07
1.17085e-08
-5.71662e-07
1.02826e-08
-5.80534e-07
8.87243e-09
-5.88016e-07
7.48136e-09
-5.94129e-07
6.11374e-09
-5.98908e-07
4.77865e-09
-6.02409e-07
3.50154e-09
-6.04748e-07
2.33822e-09
-6.06051e-07
1.30382e-09
-6.06564e-07
5.12993e-10
-6.01052e-07
-5.51293e-09
-5.9853e-07
-2.5212e-09
-5.96742e-07
-1.78835e-09
-5.8813e-07
-8.61244e-09
-5.81621e-07
-6.50886e-09
-5.75435e-07
-6.18582e-09
-5.68855e-07
-6.58003e-09
-5.57587e-07
-1.12676e-08
-5.47705e-07
-9.88173e-09
-5.37601e-07
-1.01043e-08
-5.24299e-07
-1.33023e-08
-5.13364e-07
-1.09352e-08
-4.99066e-07
-1.4298e-08
-4.8328e-07
-1.57862e-08
-4.68989e-07
-1.4291e-08
-4.51618e-07
-1.73702e-08
-4.33839e-07
-1.77797e-08
-4.1675e-07
-1.70889e-08
-3.9719e-07
-1.95601e-08
-3.7809e-07
-1.90993e-08
-3.56434e-07
-2.16562e-08
-3.33473e-07
-2.29617e-08
-3.11703e-07
-2.1769e-08
-2.88278e-07
-2.34253e-08
-2.63393e-07
-2.48851e-08
-2.37743e-07
-2.56502e-08
-2.10968e-07
-2.67747e-08
-1.83424e-07
-2.75444e-08
-1.55205e-07
-2.82186e-08
-1.26209e-07
-2.89965e-08
-9.67082e-08
-2.95004e-08
-6.74287e-08
-2.92795e-08
-3.78351e-08
-2.95936e-08
-8.85034e-09
-2.89848e-08
1.98202e-08
-2.86705e-08
4.72349e-08
-2.74147e-08
7.15997e-08
-2.43648e-08
-1.86223e-08
9.0222e-08
8.61572e-08
-1.43047e-07
1.71591e-07
-1.6171e-07
2.41126e-07
-1.49357e-07
2.92353e-07
-1.342e-07
3.29037e-07
-1.17846e-07
3.56385e-07
-9.8156e-08
3.74795e-07
-7.6786e-08
3.83795e-07
-5.4728e-08
3.84536e-07
-3.23096e-08
3.83254e-07
-9.70066e-09
3.75684e-07
1.14559e-08
3.61148e-07
3.06794e-08
3.36442e-07
4.74528e-08
3.00716e-07
6.18023e-08
2.60907e-07
7.35787e-08
2.15398e-07
8.23113e-08
1.60485e-07
8.90583e-08
9.67365e-08
9.61893e-08
2.73934e-08
1.04648e-07
-4.87944e-08
1.14381e-07
-1.33691e-07
1.25738e-07
-2.28396e-07
1.39188e-07
-3.33749e-07
1.54913e-07
-4.50375e-07
1.72738e-07
-5.78666e-07
1.9222e-07
-7.18534e-07
2.12759e-07
-8.68994e-07
2.3371e-07
-1.02864e-06
2.54341e-07
-1.19586e-06
2.73822e-07
-1.36857e-06
2.91343e-07
-1.54444e-06
3.06193e-07
-1.72106e-06
3.17815e-07
-1.8961e-06
3.25846e-07
-2.06742e-06
3.30126e-07
-2.23318e-06
3.30693e-07
-2.39188e-06
3.27756e-07
-2.54238e-06
3.21657e-07
-2.68389e-06
3.12824e-07
-2.81596e-06
3.01732e-07
-2.9384e-06
2.88856e-07
-3.05124e-06
2.74648e-07
-3.1547e-06
2.59509e-07
-3.24908e-06
2.43778e-07
-3.33478e-06
2.27727e-07
-3.41219e-06
2.11563e-07
-3.48174e-06
1.95432e-07
-3.54382e-06
1.79429e-07
-3.5988e-06
1.63606e-07
-3.64699e-06
1.47984e-07
-3.68871e-06
1.32559e-07
-3.72422e-06
1.17313e-07
-3.75376e-06
1.02218e-07
-3.77756e-06
8.72489e-08
-3.79585e-06
7.23809e-08
-3.80887e-06
5.75986e-08
-3.81686e-06
4.2901e-08
-3.82012e-06
2.83165e-08
-3.81897e-06
1.39082e-08
-3.81365e-06
-2.62374e-10
-3.80336e-06
-1.43428e-08
-3.78713e-06
-2.84707e-08
-3.76431e-06
-4.27181e-08
-3.73461e-06
-5.70369e-08
-3.69788e-06
-7.14129e-08
-3.65406e-06
-8.58323e-08
-3.60311e-06
-1.00272e-07
-3.54502e-06
-1.147e-07
-3.47983e-06
-1.29071e-07
-3.40758e-06
-1.43335e-07
-3.32834e-06
-1.57433e-07
-3.24224e-06
-1.71298e-07
-3.14942e-06
-1.84857e-07
-3.05008e-06
-1.9803e-07
-2.94444e-06
-2.10729e-07
-2.83279e-06
-2.2286e-07
-2.71545e-06
-2.34322e-07
-2.59281e-06
-2.45008e-07
-2.46531e-06
-2.54801e-07
-2.33343e-06
-2.63583e-07
-2.19775e-06
-2.71227e-07
-2.05887e-06
-2.77605e-07
-1.91748e-06
-2.82584e-07
-1.77432e-06
-2.86035e-07
-1.6302e-06
-2.8783e-07
-1.48597e-06
-2.8785e-07
-1.34255e-06
-2.85984e-07
-1.20089e-06
-2.8214e-07
-1.06197e-06
-2.76247e-07
-9.26806e-07
-2.68261e-07
-7.96403e-07
-2.58172e-07
-6.71756e-07
-2.46011e-07
-5.53824e-07
-2.31853e-07
-4.43511e-07
-2.15827e-07
-3.41636e-07
-1.98114e-07
-2.48912e-07
-1.78956e-07
-1.65921e-07
-1.58644e-07
-9.3092e-08
-1.37521e-07
-3.06607e-08
-1.15974e-07
2.126e-08
-9.4429e-08
6.27548e-08
-7.3319e-08
9.41345e-08
-5.30623e-08
1.1587e-07
-3.40177e-08
1.28609e-07
-1.64997e-08
1.33032e-07
-7.5343e-10
1.29908e-07
1.3046e-08
1.20127e-07
2.48299e-08
1.04684e-07
3.46442e-08
8.42435e-08
4.23427e-08
5.99956e-08
4.8364e-08
3.28525e-08
5.32367e-08
3.54761e-09
5.69836e-08
-2.73491e-08
5.96871e-08
-5.93303e-08
6.15114e-08
-9.19442e-08
6.26318e-08
-1.24606e-07
6.32228e-08
-1.57646e-07
6.29751e-08
-1.89783e-07
6.22884e-08
-2.21811e-07
6.12932e-08
-2.52976e-07
5.93593e-08
-2.83476e-07
5.78276e-08
-3.11099e-07
5.73532e-08
-3.37962e-07
5.55593e-08
-3.65332e-07
5.19052e-08
-3.90512e-07
4.92396e-08
-4.14124e-07
4.65575e-08
-4.36228e-07
4.37666e-08
-4.56825e-07
4.09009e-08
-4.7591e-07
3.79886e-08
-4.93485e-07
3.50523e-08
-5.09558e-07
3.21104e-08
-5.24145e-07
2.91786e-08
-5.37269e-07
2.62698e-08
-5.48955e-07
2.33949e-08
-5.59235e-07
2.05627e-08
-5.68144e-07
1.77807e-08
-5.75718e-07
1.50556e-08
-5.81999e-07
1.23947e-08
-5.87029e-07
9.80882e-09
-5.90843e-07
7.31612e-09
-5.93445e-07
4.94013e-09
-5.94815e-07
2.67384e-09
-5.94482e-07
1.79975e-10
-5.95943e-07
-4.05279e-09
-5.9372e-07
-4.7439e-09
-5.8917e-07
-6.33856e-09
-5.8708e-07
-1.07017e-08
-5.8203e-07
-1.15592e-08
-5.75736e-07
-1.248e-08
-5.68076e-07
-1.42397e-08
-5.61568e-07
-1.7776e-08
-5.52666e-07
-1.87831e-08
-5.42378e-07
-2.03926e-08
-5.32641e-07
-2.30398e-08
-5.20075e-07
-2.35011e-08
-5.07774e-07
-2.65983e-08
-4.94808e-07
-2.87525e-08
-4.79617e-07
-2.94823e-08
-4.64565e-07
-3.24218e-08
-4.48532e-07
-3.3813e-08
-4.30574e-07
-3.50466e-08
-4.1254e-07
-3.75944e-08
-3.92665e-07
-3.89742e-08
-3.7226e-07
-4.20613e-08
-3.51337e-07
-4.38841e-08
-3.28503e-07
-4.4604e-08
-3.04814e-07
-4.71134e-08
-2.80254e-07
-4.94456e-08
-2.54617e-07
-5.12875e-08
-2.28387e-07
-5.3004e-08
-2.01427e-07
-5.45051e-08
-1.73556e-07
-5.60894e-08
-1.44265e-07
-5.82875e-08
-1.14375e-07
-5.93907e-08
-8.38253e-08
-5.98289e-08
-5.41709e-08
-5.9248e-08
-2.46591e-08
-5.84966e-08
4.36442e-09
-5.7694e-08
3.22989e-08
-5.53492e-08
5.8318e-08
-5.03838e-08
-4.21203e-08
8.1816e-08
6.70658e-08
-2.10113e-07
1.18133e-07
-2.12777e-07
1.558e-07
-1.87024e-07
1.80844e-07
-1.59243e-07
1.94299e-07
-1.31301e-07
1.99084e-07
-1.02941e-07
1.96607e-07
-7.43096e-08
1.87602e-07
-4.5723e-08
1.72733e-07
-1.74401e-08
1.52819e-07
1.02135e-08
1.27464e-07
3.68105e-08
9.61961e-08
6.19474e-08
5.83217e-08
8.53272e-08
1.3309e-08
1.06815e-07
-3.93078e-08
1.26196e-07
-1.00886e-07
1.43889e-07
-1.72751e-07
1.60924e-07
-2.54908e-07
1.78346e-07
-3.47136e-07
1.96876e-07
-4.49788e-07
2.17033e-07
-5.63143e-07
2.39093e-07
-6.8701e-07
2.63055e-07
-8.207e-07
2.88603e-07
-9.63086e-07
3.15124e-07
-1.11265e-06
3.41788e-07
-1.26754e-06
3.67648e-07
-1.42557e-06
3.91739e-07
-1.58438e-06
4.13154e-07
-1.74167e-06
4.31106e-07
-1.89531e-06
4.44988e-07
-2.04354e-06
4.54422e-07
-2.185e-06
4.59269e-07
-2.31877e-06
4.59614e-07
-2.44438e-06
4.55736e-07
-2.56174e-06
4.48057e-07
-2.67108e-06
4.37093e-07
-2.77282e-06
4.234e-07
-2.86753e-06
4.07538e-07
-2.95583e-06
3.90031e-07
-3.03832e-06
3.71343e-07
-3.11554e-06
3.51871e-07
-3.18797e-06
3.31934e-07
-3.25597e-06
3.11775e-07
-3.31981e-06
2.91571e-07
-3.37969e-06
2.71439e-07
-3.4357e-06
2.51446e-07
-3.48789e-06
2.31622e-07
-3.53625e-06
2.11964e-07
-3.58072e-06
1.92452e-07
-3.62121e-06
1.73052e-07
-3.65762e-06
1.53721e-07
-3.68982e-06
1.34418e-07
-3.71768e-06
1.15101e-07
-3.74103e-06
9.57353e-08
-3.75972e-06
7.62911e-08
-3.77357e-06
5.67453e-08
-3.78233e-06
3.70825e-08
-3.78571e-06
1.72876e-08
-3.7833e-06
-2.67757e-09
-3.77474e-06
-2.29023e-08
-3.75978e-06
-4.3423e-08
-3.73829e-06
-6.42116e-08
-3.71011e-06
-8.52212e-08
-3.67511e-06
-1.06405e-07
-3.63323e-06
-1.27716e-07
-3.5844e-06
-1.49099e-07
-3.52861e-06
-1.70492e-07
-3.46586e-06
-1.91824e-07
-3.39618e-06
-2.13015e-07
-3.31964e-06
-2.33973e-07
-3.23634e-06
-2.54599e-07
-3.14641e-06
-2.74782e-07
-3.05004e-06
-2.94405e-07
-2.94743e-06
-3.13337e-07
-2.83885e-06
-3.3144e-07
-2.72461e-06
-3.48563e-07
-2.60507e-06
-3.64548e-07
-2.48064e-06
-3.79227e-07
-2.3518e-06
-3.92424e-07
-2.21908e-06
-4.03954e-07
-2.08305e-06
-4.13629e-07
-1.94438e-06
-4.21258e-07
-1.80376e-06
-4.26653e-07
-1.66196e-06
-4.29627e-07
-1.51981e-06
-4.30008e-07
-1.37815e-06
-4.27638e-07
-1.23791e-06
-4.22384e-07
-1.10001e-06
-4.14144e-07
-9.65415e-07
-4.02855e-07
-8.35085e-07
-3.88503e-07
-7.09967e-07
-3.71129e-07
-5.90981e-07
-3.50839e-07
-4.78996e-07
-3.27812e-07
-3.74811e-07
-3.023e-07
-2.79132e-07
-2.74634e-07
-1.92556e-07
-2.4522e-07
-1.15545e-07
-2.14533e-07
-4.84137e-08
-1.83106e-07
8.67253e-09
-1.51515e-07
5.57018e-08
-1.20348e-07
9.28311e-08
-9.01915e-08
1.2038e-07
-6.15669e-08
1.38808e-07
-3.49273e-08
1.48683e-07
-1.06286e-08
1.50649e-07
1.10797e-08
1.45461e-07
3.00182e-08
1.3397e-07
4.61352e-08
1.16919e-07
5.93936e-08
9.52191e-08
7.0064e-08
6.99149e-08
7.85409e-08
4.18279e-08
8.50705e-08
1.16616e-08
8.98533e-08
-1.99551e-08
9.31281e-08
-5.24581e-08
9.51347e-08
-8.53208e-08
9.60856e-08
-1.18333e-07
9.59873e-08
-1.51004e-07
9.49593e-08
-1.83103e-07
9.3392e-08
-2.14709e-07
9.09652e-08
-2.45306e-07
8.84247e-08
-2.73915e-07
8.59624e-08
-3.01256e-07
8.29005e-08
-3.28155e-07
7.88036e-08
-3.53589e-07
7.46743e-08
-3.7752e-07
7.0488e-08
-3.9996e-07
6.62063e-08
-4.20908e-07
6.1849e-08
-4.40364e-07
5.74451e-08
-4.58335e-07
5.30234e-08
-4.74834e-07
4.86091e-08
-4.8988e-07
4.42245e-08
-5.03498e-07
3.98881e-08
-5.15719e-07
3.56154e-08
-5.26575e-07
3.1419e-08
-5.36104e-07
2.73095e-08
-5.44344e-07
2.32956e-08
-5.51335e-07
1.93856e-08
-5.57114e-07
1.55881e-08
-5.61709e-07
1.19114e-08
-5.65125e-07
8.35547e-09
-5.67326e-07
4.87529e-09
-5.68386e-07
1.23967e-09
-5.6964e-07
-2.79835e-09
-5.68705e-07
-5.67952e-09
-5.66175e-07
-8.86819e-09
-5.64174e-07
-1.27023e-08
-5.60531e-07
-1.52029e-08
-5.55499e-07
-1.75114e-08
-5.49474e-07
-2.02652e-08
-5.43598e-07
-2.36511e-08
-5.36194e-07
-2.61873e-08
-5.27664e-07
-2.89224e-08
-5.1883e-07
-3.18743e-08
-5.08074e-07
-3.42566e-08
-4.97128e-07
-3.75448e-08
-4.85489e-07
-4.03912e-08
-4.72137e-07
-4.28343e-08
-4.5853e-07
-4.60294e-08
-4.43805e-07
-4.85375e-08
-4.27576e-07
-5.12762e-08
-4.10784e-07
-5.43858e-08
-3.9255e-07
-5.72085e-08
-3.73849e-07
-6.0762e-08
-3.54247e-07
-6.34862e-08
-3.32848e-07
-6.60031e-08
-3.10506e-07
-6.94555e-08
-2.87251e-07
-7.27009e-08
-2.62919e-07
-7.56192e-08
-2.37788e-07
-7.8135e-08
-2.11776e-07
-8.05172e-08
-1.84786e-07
-8.30787e-08
-1.56775e-07
-8.62988e-08
-1.27955e-07
-8.82105e-08
-9.84604e-08
-8.93238e-08
-6.92494e-08
-8.8459e-08
-4.01809e-08
-8.75651e-08
-1.16276e-08
-8.62473e-08
1.60644e-08
-8.30413e-08
4.25785e-08
-7.68979e-08
-6.72179e-08
6.76761e-08
3.33979e-08
-2.43511e-07
4.72083e-08
-2.26587e-07
5.40623e-08
-1.93878e-07
5.45096e-08
-1.59691e-07
4.85887e-08
-1.2538e-07
3.67643e-08
-9.11165e-08
1.94243e-08
-5.69697e-08
-3.24317e-09
-2.30555e-08
-3.11671e-08
1.04839e-08
-6.44197e-08
4.34661e-08
-1.03263e-07
7.56541e-08
-1.48133e-07
1.06817e-07
-1.99602e-07
1.36796e-07
-2.5834e-07
1.65553e-07
-3.2535e-07
1.93206e-07
-4.01622e-07
2.20161e-07
-4.87745e-07
2.47047e-07
-5.83866e-07
2.74467e-07
-6.89828e-07
3.02838e-07
-8.0511e-07
3.32315e-07
-9.28766e-07
3.6275e-07
-1.05941e-06
3.93702e-07
-1.19528e-06
4.24468e-07
-1.33432e-06
4.54163e-07
-1.47435e-06
4.81826e-07
-1.61324e-06
5.06533e-07
-1.74899e-06
5.27485e-07
-1.87991e-06
5.44078e-07
-2.00474e-06
5.55937e-07
-2.12268e-06
5.62925e-07
-2.23339e-06
5.65132e-07
-2.33695e-06
5.62829e-07
-2.43376e-06
5.56429e-07
-2.52446e-06
5.46432e-07
-2.60978e-06
5.33379e-07
-2.6905e-06
5.1781e-07
-2.76733e-06
5.00236e-07
-2.84091e-06
4.81116e-07
-2.91173e-06
4.60848e-07
-2.98014e-06
4.3976e-07
-3.04639e-06
4.18114e-07
-3.11056e-06
3.96107e-07
-3.17267e-06
3.73883e-07
-3.23263e-06
3.51535e-07
-3.29031e-06
3.29116e-07
-3.34551e-06
3.06647e-07
-3.39801e-06
2.84123e-07
-3.44757e-06
2.61525e-07
-3.49393e-06
2.38816e-07
-3.53684e-06
2.15955e-07
-3.57601e-06
1.92899e-07
-3.6112e-06
1.69602e-07
-3.64212e-06
1.46025e-07
-3.66852e-06
1.22129e-07
-3.69011e-06
9.78826e-08
-3.70662e-06
7.32606e-08
-3.71778e-06
4.82425e-08
-3.72331e-06
2.28112e-08
-3.72293e-06
-3.05245e-09
-3.71646e-06
-2.93755e-08
-3.70373e-06
-5.61498e-08
-3.68461e-06
-8.33345e-08
-3.65896e-06
-1.10871e-07
-3.62667e-06
-1.38695e-07
-3.58765e-06
-1.66735e-07
-3.54184e-06
-1.94911e-07
-3.48919e-06
-2.23136e-07
-3.42971e-06
-2.51309e-07
-3.3634e-06
-2.79322e-07
-3.29032e-06
-3.07053e-07
-3.21055e-06
-3.3437e-07
-3.1242e-06
-3.61127e-07
-3.03144e-06
-3.87167e-07
-2.93246e-06
-4.1232e-07
-2.8275e-06
-4.36403e-07
-2.71684e-06
-4.59221e-07
-2.60082e-06
-4.80564e-07
-2.47984e-06
-5.00213e-07
-2.35432e-06
-5.17936e-07
-2.22478e-06
-5.33493e-07
-2.09178e-06
-5.46637e-07
-1.95592e-06
-5.57119e-07
-1.81788e-06
-5.64689e-07
-1.6784e-06
-5.69108e-07
-1.53826e-06
-5.70147e-07
-1.3983e-06
-5.67601e-07
-1.25939e-06
-5.61294e-07
-1.12244e-06
-5.51092e-07
-9.88386e-07
-5.3691e-07
-8.58162e-07
-5.18726e-07
-7.327e-07
-4.96591e-07
-6.12905e-07
-4.70634e-07
-4.99641e-07
-4.41076e-07
-3.93706e-07
-4.08234e-07
-2.9582e-07
-3.7252e-07
-2.06598e-07
-3.34441e-07
-1.26541e-07
-2.9459e-07
-5.60107e-08
-2.53636e-07
4.77143e-09
-2.12297e-07
5.57316e-08
-1.71309e-07
9.69446e-08
-1.31405e-07
1.28641e-07
-9.32631e-08
1.51188e-07
-5.74749e-08
1.65075e-07
-2.45156e-08
1.7089e-07
5.26477e-09
1.69304e-07
3.16042e-08
1.6107e-07
5.43697e-08
1.46936e-07
7.35275e-08
1.27751e-07
8.92486e-08
1.04446e-07
1.01846e-07
7.78848e-08
1.11632e-07
4.88384e-08
1.189e-07
1.80057e-08
1.23961e-07
-1.39849e-08
1.27125e-07
-4.65715e-08
1.28672e-07
-7.93581e-08
1.28774e-07
-1.12015e-07
1.27617e-07
-1.44145e-07
1.25521e-07
-1.75712e-07
1.22532e-07
-2.06311e-07
1.19024e-07
-2.35515e-07
1.15166e-07
-2.63375e-07
1.10761e-07
-2.90201e-07
1.05629e-07