/*--------------------------------*- C++ -*----------------------------------*\
  =========                 |
  \\      /  F ield         | OpenFOAM: The Open Source CFD Toolbox
   \\    /   O peration     | Website:  https://openfoam.org
    \\  /    A nd           | Version:  9
     \\/     M anipulation  |
\*---------------------------------------------------------------------------*/
FoamFile
{
    format      ascii;
    class       volVectorField;
    location    "0.25";
    object      U;
}
// * * * * * * * * * * * * * * * * * * * * * * * * * * * * * * * * * * * * * //

dimensions      [0 1 -1 0 0 0 0];

internalField   nonuniform List<vector> 
12225
(
(0.932896 -0.309902 0)
(0.896624 -0.0876913 0)
(0.797624 -0.00153557 0)
(0.695066 0.0123195 0)
(0.622571 0.0102645 0)
(0.571286 0.00750877 0)
(0.529284 0.00622931 0)
(0.491354 0.00592002 0)
(0.455175 0.00601904 0)
(0.419336 0.00626164 0)
(0.383117 0.00654601 0)
(0.346314 0.00680282 0)
(0.309154 0.00693223 0)
(0.272241 0.00677074 0)
(0.237535 0.00597751 0)
(0.206046 0.0038828 0)
(0.197387 -0.0052584 0)
(0.166784 0.0330239 0)
(1.02576 0.0788882 0)
(1.00354 0.0668291 0)
(0.965918 0.0362002 0)
(0.917641 0.0264728 0)
(0.870608 0.0221952 0)
(0.827581 0.0188766 0)
(0.787323 0.0169844 0)
(0.748845 0.0164367 0)
(0.710988 0.0167549 0)
(0.672485 0.0175889 0)
(0.632385 0.0187362 0)
(0.590099 0.0200298 0)
(0.545373 0.0212565 0)
(0.498191 0.0220656 0)
(0.449391 0.0219329 0)
(0.398145 0.0188107 0)
(0.350285 0.00971537 0)
(0.273296 0.0446038 0)
(1.00008 0.0225044 0)
(0.999532 0.0357962 0)
(0.994769 0.0346289 0)
(0.9739 0.0332346 0)
(0.94517 0.0307292 0)
(0.913562 0.0280175 0)
(0.880515 0.0265266 0)
(0.846836 0.0264444 0)
(0.812458 0.0274345 0)
(0.776714 0.029208 0)
(0.738886 0.0315718 0)
(0.698366 0.0343394 0)
(0.654674 0.0372627 0)
(0.607325 0.0399465 0)
(0.556125 0.0418503 0)
(0.49924 0.0412387 0)
(0.436154 0.0389744 0)
(0.350072 0.0799539 0)
(0.998247 0.00606367 0)
(1.00086 0.0284649 0)
(1.0044 0.0361133 0)
(0.994839 0.0379832 0)
(0.976893 0.0374361 0)
(0.954091 0.0361434 0)
(0.927829 0.0356436 0)
(0.899321 0.0364116 0)
(0.869034 0.0383427 0)
(0.836751 0.0412702 0)
(0.802026 0.0450567 0)
(0.764352 0.0495447 0)
(0.723187 0.0545166 0)
(0.677832 0.0596397 0)
(0.627555 0.0645124 0)
(0.57034 0.0680285 0)
(0.504221 0.0731785 0)
(0.420776 0.117235 0)
(0.999186 0.00582005 0)
(1.00219 0.0278753 0)
(1.00747 0.0372261 0)
(1.00342 0.0409902 0)
(0.992195 0.0424465 0)
(0.975794 0.042892 0)
(0.955157 0.0437587 0)
(0.931396 0.0457041 0)
(0.905138 0.0488268 0)
(0.87642 0.0530971 0)
(0.845004 0.0584651 0)
(0.810506 0.0648441 0)
(0.772414 0.0721016 0)
(0.729991 0.0800395 0)
(0.682346 0.0884666 0)
(0.627697 0.096916 0)
(0.564302 0.109151 0)
(0.488172 0.153232 0)
(0.999572 0.0070676 0)
(1.00242 0.027004 0)
(1.00781 0.0371883 0)
(1.00671 0.0427149 0)
(0.999746 0.0460882 0)
(0.987921 0.0483432 0)
(0.971763 0.050777 0)
(0.952128 0.0541244 0)
(0.929607 0.0586312 0)
(0.904351 0.0643928 0)
(0.876255 0.0714563 0)
(0.845048 0.0798276 0)
(0.810296 0.0894851 0)
(0.771346 0.100387 0)
(0.72738 0.112542 0)
(0.677017 0.125966 0)
(0.619146 0.144346 0)
(0.55229 0.187575 0)
(0.999625 0.0072748 0)
(1.00216 0.025517 0)
(1.0071 0.0365444 0)
(1.00754 0.0436396 0)
(1.00326 0.048738 0)
(0.994687 0.0527493 0)
(0.982035 0.0568198 0)
(0.965893 0.0616913 0)
(0.946739 0.0677068 0)
(0.92475 0.0750622 0)
(0.899902 0.083896 0)
(0.872014 0.0943083 0)
(0.840758 0.106388 0)
(0.805626 0.120233 0)
(0.765994 0.136003 0)
(0.720919 0.154003 0)
(0.669913 0.17743 0)
(0.61289 0.219881 0)
(0.999663 0.00708723 0)
(1.00179 0.0240418 0)
(1.00605 0.0357092 0)
(1.00718 0.0440804 0)
(1.00459 0.0506866 0)
(0.998318 0.0563383 0)
(0.988396 0.0620262 0)
(0.975177 0.068461 0)
(0.959012 0.0760434 0)
(0.940064 0.0850435 0)
(0.918351 0.0956754 0)
(0.893769 0.108122 0)
(0.866101 0.122567 0)
(0.835008 0.139207 0)
(0.800097 0.158294 0)
(0.76083 0.180259 0)
(0.717205 0.207655 0)
(0.669795 0.249505 0)
(0.999738 0.00690967 0)
(1.00144 0.0227936 0)
(1.00493 0.0348495 0)
(1.00629 0.0442295 0)
(1.00473 0.0521364 0)
(1.00011 0.0592816 0)
(0.992323 0.0665104 0)
(0.981548 0.0744841 0)
(0.968026 0.0836316 0)
(0.951891 0.0942725 0)
(0.933185 0.106677 0)
(0.911869 0.121092 0)
(0.887832 0.137765 0)
(0.8609 0.156953 0)
(0.8309 0.178943 0)
(0.797623 0.204171 0)
(0.761388 0.234536 0)
(0.722982 0.275858 0)
(0.999819 0.00678146 0)
(1.00113 0.0217691 0)
(1.00389 0.0340357 0)
(1.00523 0.044211 0)
(1.00431 0.0532278 0)
(1.00089 0.0617049 0)
(0.994783 0.070361 0)
(0.986069 0.0798002 0)
(0.974892 0.0904581 0)
(0.961361 0.102682 0)
(0.945532 0.116779 0)
(0.927423 0.133033 0)
(0.907016 0.151728 0)
(0.884282 0.17314 0)
(0.859226 0.197544 0)
(0.831884 0.225311 0)
(0.802746 0.257755 0)
(0.772575 0.298512 0)
(0.999888 0.00666785 0)
(1.00089 0.0209335 0)
(1.00301 0.0333013 0)
(1.0042 0.0440996 0)
(1.00369 0.0540502 0)
(1.00117 0.0636918 0)
(0.996441 0.0736361 0)
(0.989497 0.0844285 0)
(0.980427 0.0964954 0)
(0.969318 0.110194 0)
(0.956242 0.125846 0)
(0.941262 0.143752 0)
(0.924442 0.164201 0)
(0.905865 0.187458 0)
(0.885668 0.213752 0)
(0.864042 0.243353 0)
(0.841543 0.277098 0)
(0.818798 0.317166 0)
(0.999934 0.00657031 0)
(1.00072 0.020319 0)
(1.00238 0.0327171 0)
(1.00343 0.0439594 0)
(1.00318 0.0546223 0)
(1.00132 0.0651808 0)
(0.997662 0.0761664 0)
(0.992151 0.088072 0)
(0.984846 0.101305 0)
(0.975824 0.116217 0)
(0.965171 0.133129 0)
(0.952984 0.152336 0)
(0.939383 0.174112 0)
(0.924525 0.198688 0)
(0.908623 0.226239 0)
(0.891952 0.256931 0)
(0.875064 0.291267 0)
(0.858446 0.330533 0)
(0.99997 0.00646796 0)
(1.0006 0.019805 0)
(1.00191 0.0321934 0)
(1.00286 0.0437783 0)
(1.00284 0.0550284 0)
(1.00158 0.0663642 0)
(0.99887 0.0782496 0)
(0.99467 0.0911273 0)
(0.989011 0.105379 0)
(0.981963 0.121342 0)
(0.973625 0.139322 0)
(0.964124 0.159598 0)
(0.953618 0.182412 0)
(0.94231 0.207953 0)
(0.930456 0.236335 0)
(0.918364 0.267629 0)
(0.906543 0.302082 0)
(0.895342 0.34037 0)
(1 0.00635733 0)
(1.00053 0.0193145 0)
(1.0016 0.031654 0)
(1.00251 0.0435137 0)
(1.00278 0.0552812 0)
(1.00216 0.067329 0)
(1.00048 0.0800566 0)
(0.997693 0.0938528 0)
(0.993819 0.109064 0)
(0.988932 0.125999 0)
(0.983143 0.144937 0)
(0.976599 0.166121 0)
(0.969484 0.189751 0)
(0.962026 0.215959 0)
(0.954493 0.244793 0)
(0.947189 0.276234 0)
(0.940542 0.310321 0)
(0.934755 0.347293 0)
(1.00002 0.00622032 0)
(1.00052 0.0188065 0)
(1.0015 0.0310346 0)
(1.00253 0.0430642 0)
(1.00322 0.055226 0)
(1.00337 0.0678505 0)
(1.00285 0.0812782 0)
(1.00162 0.0958408 0)
(0.99971 0.11184 0)
(0.997187 0.129543 0)
(0.994175 0.149187 0)
(0.990829 0.170967 0)
(0.987343 0.195026 0)
(0.983942 0.221436 0)
(0.980878 0.250182 0)
(0.978415 0.28117 0)
(0.976883 0.314298 0)
(0.976352 0.349531 0)
(1.00004 0.00602738 0)
(1.00061 0.0181882 0)
(1.00171 0.0301846 0)
(1.00308 0.042215 0)
(1.00441 0.0545714 0)
(1.00555 0.0675438 0)
(1.00641 0.0814177 0)
(1.00696 0.0964665 0)
(1.00722 0.112937 0)
(1.00728 0.131046 0)
(1.00726 0.150974 0)
(1.00731 0.17286 0)
(1.00761 0.196786 0)
(1.00835 0.222767 0)
(1.00975 0.250737 0)
(1.01202 0.280556 0)
(1.01537 0.312043 0)
(1.01978 0.345022 0)
(1.00006 0.00571953 0)
(1.00082 0.0172672 0)
(1.00229 0.0287959 0)
(1.00428 0.0405428 0)
(1.00657 0.052772 0)
(1.00902 0.0657308 0)
(1.01155 0.0796501 0)
(1.01415 0.094742 0)
(1.01686 0.111193 0)
(1.01974 0.129159 0)
(1.0229 0.14876 0)
(1.02647 0.170077 0)
(1.03059 0.193136 0)
(1.03544 0.217908 0)
(1.04114 0.244294 0)
(1.04785 0.272138 0)
(1.05571 0.301233 0)
(1.0646 0.33136 0)
(1.0001 0.00519097 0)
(1.00116 0.0157081 0)
(1.00327 0.0263292 0)
(1.00623 0.0373179 0)
(1.00985 0.0489124 0)
(1.01396 0.0613124 0)
(1.01851 0.0746904 0)
(1.02347 0.0891938 0)
(1.02887 0.104944 0)
(1.03476 0.122033 0)
(1.04121 0.140522 0)
(1.04832 0.160437 0)
(1.0562 0.181764 0)
(1.06494 0.204442 0)
(1.07465 0.228362 0)
(1.08538 0.253372 0)
(1.09722 0.279283 0)
(1.11003 0.305889 0)
(1.00015 0.00427093 0)
(1.00168 0.0129789 0)
(1.00468 0.0219228 0)
(1.00897 0.0313838 0)
(1.01427 0.0415649 0)
(1.02039 0.0526083 0)
(1.02725 0.0646208 0)
(1.0348 0.0776803 0)
(1.04303 0.0918392 0)
(1.05196 0.107128 0)
(1.06164 0.123555 0)
(1.07213 0.141105 0)
(1.08347 0.159735 0)
(1.09572 0.179372 0)
(1.10893 0.199915 0)
(1.12312 0.221233 0)
(1.13828 0.243174 0)
(1.15431 0.26558 0)
(1.00019 0.00308361 0)
(1.00219 0.00939582 0)
(1.00612 0.0160854 0)
(1.0117 0.0234822 0)
(1.01851 0.03175 0)
(1.02633 0.0409658 0)
(1.03503 0.0511665 0)
(1.04453 0.0623588 0)
(1.05481 0.0745302 0)
(1.06587 0.087658 0)
(1.07773 0.101711 0)
(1.09044 0.116647 0)
(1.10402 0.13241 0)
(1.1185 0.148929 0)
(1.13391 0.166118 0)
(1.15022 0.18387 0)
(1.16744 0.202071 0)
(1.18545 0.220604 0)
(1.00021 0.00191617 0)
(1.00257 0.00586096 0)
(1.00728 0.0103854 0)
(1.01387 0.0158804 0)
(1.02179 0.0224396 0)
(1.03075 0.0300612 0)
(1.0406 0.0387093 0)
(1.05125 0.048319 0)
(1.06267 0.0588181 0)
(1.07485 0.0701404 0)
(1.08784 0.0822258 0)
(1.10166 0.0950158 0)
(1.11634 0.10845 0)
(1.1319 0.122461 0)
(1.14834 0.136974 0)
(1.16565 0.151906 0)
(1.18381 0.167167 0)
(1.20274 0.18267 0)
(1.0002 0.000773789 0)
(1.00283 0.00226748 0)
(1.00825 0.00463493 0)
(1.01571 0.00834681 0)
(1.02447 0.0133644 0)
(1.0342 0.0195879 0)
(1.04473 0.0268969 0)
(1.05598 0.0351434 0)
(1.06794 0.0441929 0)
(1.08062 0.0539414 0)
(1.09407 0.0643066 0)
(1.10834 0.0752201 0)
(1.12345 0.0866205 0)
(1.13943 0.0984484 0)
(1.15627 0.110642 0)
(1.17396 0.123136 0)
(1.19248 0.135861 0)
(1.21175 0.148751 0)
(1.00013 -0.000266688 0)
(1.00289 -0.00128971 0)
(1.00899 -0.000976492 0)
(1.01718 0.00117428 0)
(1.02651 0.00489597 0)
(1.03663 0.00998808 0)
(1.04739 0.0162309 0)
(1.05873 0.0233742 0)
(1.07067 0.0312204 0)
(1.08329 0.0396343 0)
(1.09665 0.0485204 0)
(1.11083 0.0578069 0)
(1.12585 0.0674379 0)
(1.14175 0.0773645 0)
(1.15853 0.0875397 0)
(1.17616 0.0979149 0)
(1.19463 0.108439 0)
(1.21387 0.119065 0)
(0.999976 -0.00113428 0)
(1.00267 -0.00482094 0)
(1.00946 -0.00636056 0)
(1.01825 -0.00545212 0)
(1.02782 -0.00272342 0)
(1.03791 0.00155176 0)
(1.04838 0.00703113 0)
(1.05922 0.013338 0)
(1.07057 0.0202145 0)
(1.08257 0.0275082 0)
(1.09533 0.035121 0)
(1.10894 0.0429881 0)
(1.12345 0.0510657 0)
(1.13888 0.0593201 0)
(1.15525 0.0677208 0)
(1.17251 0.076236 0)
(1.19065 0.0848328 0)
(1.2096 0.0934782 0)
(0.99968 -0.00145864 0)
(1.00206 -0.00821899 0)
(1.00969 -0.0114292 0)
(1.01885 -0.0113881 0)
(1.02815 -0.00929087 0)
(1.03757 -0.00547772 0)
(1.04703 -0.000455587 0)
(1.05666 0.00525353 0)
(1.06674 0.0113477 0)
(1.07753 0.0176787 0)
(1.08918 0.0241635 0)
(1.1018 0.0307569 0)
(1.11544 0.0374365 0)
(1.13012 0.0441886 0)
(1.14582 0.0510005 0)
(1.16252 0.0578573 0)
(1.18014 0.0647425 0)
(1.19865 0.0716354 0)
(0.998785 -0.000179887 0)
(1.00066 -0.0107658 0)
(1.00953 -0.0157772 0)
(1.01864 -0.016364 0)
(1.02676 -0.014515 0)
(1.03444 -0.0107905 0)
(1.04183 -0.00596477 0)
(1.04929 -0.000695569 0)
(1.05732 0.00471432 0)
(1.06628 0.0101533 0)
(1.07635 0.0155738 0)
(1.08762 0.0209663 0)
(1.10013 0.0263394 0)
(1.11386 0.031702 0)
(1.12876 0.0370593 0)
(1.14477 0.0424113 0)
(1.16181 0.0477555 0)
(1.17983 0.0530819 0)
(0.996538 0.00168329 0)
(0.997921 -0.0123367 0)
(1.00835 -0.0187862 0)
(1.01637 -0.01989 0)
(1.02159 -0.0179518 0)
(1.02575 -0.0139851 0)
(1.0295 -0.00920683 0)
(1.03359 -0.00436045 0)
(1.03871 0.000332109 0)
(1.04524 0.00484218 0)
(1.05333 0.0091728 0)
(1.06302 0.0133669 0)
(1.07425 0.0174696 0)
(1.08694 0.0215111 0)
(1.101 0.0255103 0)
(1.11631 0.0294768 0)
(1.13277 0.0334175 0)
(1.15032 0.0373321 0)
(0.995247 -0.00878565 0)
(0.996041 -0.0196675 0)
(1.00508 -0.0218613 0)
(1.00826 -0.0218057 0)
(1.00708 -0.0192449 0)
(1.00475 -0.0148112 0)
(1.00269 -0.0100874 0)
(1.00198 -0.00579041 0)
(1.00335 -0.00195882 0)
(1.00695 0.00150773 0)
(1.01282 0.00467162 0)
(1.02081 0.00764214 0)
(1.03073 0.0104954 0)
(1.04238 0.0132741 0)
(1.05559 0.016002 0)
(1.07022 0.0186904 0)
(1.0861 0.0213467 0)
(1.1032 0.0239767 0)
(1.01494 -0.0667475 0)
(1.00928 -0.0616813 0)
(0.998505 -0.0344094 0)
(0.98205 -0.0234776 0)
(0.965381 -0.0183805 0)
(0.951305 -0.0135435 0)
(0.940549 -0.00916864 0)
(0.933626 -0.00564025 0)
(0.930602 -0.00279679 0)
(0.931008 -0.00049155 0)
(0.93455 0.00150585 0)
(0.940795 0.00332913 0)
(0.949313 0.00505225 0)
(0.959789 0.0067146 0)
(0.971989 0.00833314 0)
(0.98573 0.00991455 0)
(1.00083 0.0114576 0)
(1.01723 0.012971 0)
(0.966127 0.257722 0)
(0.970233 0.0890553 0)
(0.914541 0.011375 0)
(0.84415 -0.00621017 0)
(0.7926 -0.00703645 0)
(0.759967 -0.0046472 0)
(0.739247 -0.00250637 0)
(0.726463 -0.00108312 0)
(0.719596 -0.000120973 0)
(0.717381 0.000469386 0)
(0.718197 0.000989459 0)
(0.72147 0.00150616 0)
(0.726975 0.00202835 0)
(0.734506 0.0025575 0)
(0.743854 0.00308791 0)
(0.754838 0.00361412 0)
(0.767259 0.00412455 0)
(0.780994 0.00463148 0)
(0.0422006 -0.0345915 -7.57659e-21)
(0.0906893 -0.071007 5.23356e-21)
(0.151607 -0.0961591 0)
(0.219031 -0.122028 0)
(0.2964 -0.128701 0)
(0.372603 -0.113182 -5.94403e-21)
(0.426919 -0.0974151 0)
(0.471895 -0.0829273 0)
(0.507467 -0.0626274 0)
(0.529324 -0.0184896 0)
(0.531144 0.00546637 4.79692e-21)
(0.520473 0.0171402 0)
(0.502333 0.0176735 0)
(0.483589 0.011315 0)
(0.454847 0.0294752 0)
(0.421024 0.0384126 6.76945e-21)
(0.390672 0.0287503 0)
(0.363224 0.0191143 0)
(0.331493 0.0241565 0)
(0.298936 0.0285957 0)
(0.264365 0.0295348 0)
(0.226544 0.0303921 0)
(0.1849 0.0327639 0)
(0.138098 0.0370423 9.5873e-21)
(0.0847829 0.042939 -1.03084e-20)
(0.0237598 0.0496857 1.09974e-20)
(-0.0462127 0.0568756 1.11551e-20)
(-0.126059 0.0649259 0)
(-0.216469 0.0741512 0)
(-0.317855 0.0844547 -1.05016e-20)
(-0.430138 0.09545 -1.03447e-20)
(-0.552807 0.1066 0)
(-0.684925 0.117313 0)
(-0.825184 0.127025 -1.01554e-20)
(-0.971997 0.135268 0)
(-1.1236 0.141712 0)
(-1.27817 0.146172 1.04044e-20)
(-1.43389 0.148605 0)
(-1.58907 0.149083 1.07574e-20)
(-1.74216 0.147769 2.19395e-20)
(-1.89182 0.144876 0)
(-2.03692 0.140648 0)
(-2.17654 0.135328 0)
(-2.30994 0.129142 0)
(-2.43657 0.122291 0)
(-2.55601 0.11494 2.47229e-20)
(-2.66798 0.107219 2.51422e-20)
(-2.77225 0.0992223 2.55323e-20)
(-2.86869 0.0910139 0)
(-2.95717 0.0826327 -2.62102e-20)
(-3.0376 0.074098 0)
(-3.10989 0.0654177 2.67329e-20)
(-3.17394 0.0565973 2.69307e-20)
(-3.22961 0.0476492 0)
(-3.27675 0.038602 0)
(-3.31522 0.0295228 0)
(-3.34489 0.0205559 2.72639e-20)
(-3.36565 0.011966 0)
(-3.37725 0.00411873 0)
(-3.37953 -0.00271096 0)
(-3.37411 -0.00857397 0)
(-3.36172 -0.0139084 0)
(-3.34243 -0.0190296 0)
(-3.31635 -0.0240574 0)
(-3.28351 -0.0290375 0)
(-3.24391 -0.0339856 -2.43724e-20)
(-3.19755 -0.0389022 0)
(-3.14443 -0.0437804 0)
(-3.08457 -0.0486082 2.20637e-20)
(-3.01804 -0.0533706 2.11476e-20)
(-2.9449 -0.0580496 0)
(-2.86527 -0.0626246 -1.91059e-20)
(-2.77929 -0.0670725 1.79856e-20)
(-2.68715 -0.0713673 0)
(-2.58907 -0.0754802 -1.55641e-20)
(-2.48534 -0.0793797 0)
(-2.37627 -0.0830308 0)
(-2.26224 -0.0863955 1.15541e-20)
(-2.14369 -0.0894327 0)
(-2.02113 -0.0920982 -8.70524e-21)
(-1.89509 -0.0943448 0)
(-1.76623 -0.0961232 5.794e-21)
(-1.63521 -0.0973824 4.34e-21)
(-1.50281 -0.0980705 2.90188e-21)
(-1.36983 -0.0981363 2.98305e-21)
(-1.23718 -0.0975305 -2.42527e-22)
(-1.10577 -0.0962079 0)
(-0.976592 -0.0941297 0)
(-0.850661 -0.091266 0)
(-0.729006 -0.0875996 9.41868e-21)
(-0.612658 -0.0831295 1.13913e-20)
(-0.502623 -0.0778751 -1.3147e-20)
(-0.399858 -0.0718796 0)
(-0.305241 -0.0652137 1.59554e-20)
(-0.219543 -0.0579777 1.69936e-20)
(-0.143401 -0.0503015 1.77865e-20)
(-0.0772898 -0.0423423 0)
(-0.0214912 -0.0342693 0)
(0.0239452 -0.02624 0)
(0.0590829 -0.0185346 1.79089e-20)
(0.084366 -0.0114543 0)
(0.100432 -0.00515979 0)
(0.108029 0.000290093 -1.60398e-20)
(0.107911 0.00482089 0)
(0.101301 0.00837891 0)
(0.0893022 0.0111012 -1.41854e-20)
(0.073136 0.0131424 0)
(0.0526083 0.013854 0)
(0.0309565 0.0148987 1.23465e-20)
(0.00720487 0.0157526 1.15249e-20)
(-0.0188723 0.0163294 0)
(-0.0460623 0.0166226 -9.66862e-21)
(-0.0741592 0.0167143 0)
(-0.102896 0.0167301 7.87292e-21)
(-0.13203 0.0168773 0)
(-0.161756 0.0148886 6.16097e-21)
(-0.190484 0.0157445 5.34987e-21)
(-0.219663 0.0136478 0)
(-0.247688 0.0138227 0)
(-0.274933 0.0156917 0)
(-0.302257 0.0236518 0)
(-0.331318 0.0219698 0)
(-0.357998 0.0125457 0)
(-0.38172 0.0120704 0)
(-0.405036 0.0114204 1.58476e-22)
(-0.427263 0.0107046 3.06468e-22)
(-0.448256 0.0099657 0)
(-0.467957 0.00921886 0)
(-0.486329 0.00847118 0)
(-0.503349 0.00772719 0)
(-0.519001 0.00699027 4.12167e-21)
(-0.53328 0.00626297 0)
(-0.546184 0.00554712 -5.04471e-21)
(-0.557718 0.00484399 5.41651e-21)
(-0.567892 0.00415437 0)
(-0.576717 0.00347882 0)
(-0.584208 0.0028186 0)
(-0.590389 0.00217808 -6.38793e-21)
(-0.595299 0.00156891 -6.51853e-21)
(-0.599009 0.000997904 0)
(-0.601766 0.000325904 -6.65908e-21)
(-0.603433 -0.00144691 -6.66225e-21)
(-0.601752 -0.01316 6.51771e-21)
(-0.598845 -0.00139215 0)
(-0.597491 0.00608094 0)
(-0.592771 -0.007688 6.5861e-21)
(-0.586174 -0.00456323 0)
(-0.580898 -0.00292146 0)
(-0.575421 -0.0036918 0)
(-0.566947 -0.0135681 0)
(-0.557559 -0.00817954 -5.27831e-21)
(-0.548293 -0.00553871 -5.40103e-21)
(-0.537169 -0.0096196 0)
(-0.525879 -0.00136284 -4.6893e-21)
(-0.513774 -0.00745355 0)
(-0.499364 -0.0110515 0)
(-0.485042 -0.00471386 -3.99093e-21)
(-0.469312 -0.0097971 0)
(-0.452563 -0.00998968 -3.37018e-21)
(-0.435296 -0.00496335 0)
(-0.417169 -0.00870728 0)
(-0.398339 -0.00650965 -2.61086e-21)
(-0.377575 -0.0118164 0)
(-0.355565 -0.0143539 -1.84065e-21)
(-0.333382 -0.00837045 0)
(-0.310227 -0.0093672 0)
(-0.285831 -0.0112637 0)
(-0.260006 -0.0116885 5.11482e-22)
(-0.233411 -0.0121098 0)
(-0.205603 -0.0114308 1.83093e-22)
(-0.177161 -0.010131 0)
(-0.146909 -0.0100975 0)
(-0.116764 -0.011882 0)
(-0.0854997 -0.0118877 0)
(-0.0554108 -0.0132832 0)
(-0.0247005 -0.0123375 0)
(0.00599779 -0.0121175 0)
(0.0359296 -0.0115241 -5.32145e-21)
(0.0637949 -0.0101562 0)
(0.0871141 -0.00738591 0)
(0.0502133 -0.196219 2.22792e-20)
(0.120964 -0.231673 -1.60754e-20)
(0.184673 -0.220108 0)
(0.237935 -0.205527 8.15781e-21)
(0.277885 -0.189618 0)
(0.306505 -0.163488 3.77447e-21)
(0.326536 -0.131487 -7.88998e-21)
(0.338709 -0.0974965 -7.96532e-21)
(0.34313 -0.0630764 0)
(0.342387 -0.0285815 -8.17344e-21)
(0.338831 0.00432526 -4.00856e-21)
(0.329941 0.033194 0)
(0.313558 0.0565774 0)
(0.285815 0.0752535 0)
(0.252104 0.0873147 0)
(0.214132 0.0927598 -4.54097e-21)
(0.169346 0.095191 0)
(0.11621 0.099691 9.20007e-21)
(0.0570408 0.105965 0)
(-0.00793531 0.113217 0)
(-0.0797445 0.122589 -9.50585e-21)
(-0.159872 0.135036 0)
(-0.249272 0.150899 9.27566e-21)
(-0.348654 0.170041 -4.90359e-21)
(-0.458575 0.19197 4.87962e-21)
(-0.579188 0.215942 -4.86234e-21)
(-0.70995 0.241115 -4.85273e-21)
(-0.849839 0.266645 0)
(-0.997522 0.291558 0)
(-1.15131 0.314767 4.911e-21)
(-1.30919 0.335232 -4.6891e-21)
(-1.46902 0.352082 0)
(-1.62862 0.364691 0)
(-1.78596 0.372709 5.33823e-21)
(-1.93923 0.376064 0)
(-2.0869 0.37493 0)
(-2.22777 0.369679 -5.96584e-21)
(-2.36097 0.360816 0)
(-2.48594 0.348927 6.6906e-21)
(-2.60238 0.334617 -1.35612e-20)
(-2.71023 0.318474 0)
(-2.8096 0.301032 0)
(-2.90072 0.282751 -3.10507e-20)
(-2.98392 0.264015 -3.21683e-20)
(-3.05954 0.245121 -3.32395e-20)
(-3.12795 0.226292 1.73153e-20)
(-3.18951 0.207681 -1.74221e-20)
(-3.24456 0.189384 -5.39469e-20)
(-3.2934 0.171451 3.68767e-20)
(-3.3363 0.153895 1.86282e-20)
(-3.3735 0.136703 0)
(-3.40523 0.119844 -1.91983e-20)
(-3.4317 0.103276 1.97622e-20)
(-3.45309 0.0869544 0)
(-3.4696 0.0708356 0)
(-3.48145 0.0548821 0)
(-3.48887 0.039096 -1.97024e-20)
(-3.4921 0.0235805 0)
(-3.49145 0.00857618 3.95385e-20)
(-3.48707 -0.00567731 0)
(-3.47764 -0.0191918 3.85972e-20)
(-3.46224 -0.0322114 0)
(-3.44063 -0.0449274 -3.7236e-20)
(-3.41262 -0.0574372 0)
(-3.37809 -0.0697766 3.5447e-20)
(-3.33699 -0.0819485 -1.76107e-20)
(-3.28928 -0.0939355 0)
(-3.23495 -0.105708 -3.19961e-20)
(-3.17403 -0.117229 -1.48168e-20)
(-3.10656 -0.128455 -1.40702e-20)
(-3.0326 -0.139335 0)
(-2.95227 -0.149816 -1.36843e-20)
(-2.86571 -0.159841 -1.16058e-20)
(-2.77309 -0.169346 0)
(-2.67464 -0.178265 9.81807e-21)
(-2.57062 -0.186527 -1.92658e-20)
(-2.46134 -0.194057 0)
(-2.34718 -0.200779 -7.02155e-21)
(-2.22855 -0.20661 0)
(-2.10592 -0.211466 1.7118e-20)
(-1.97984 -0.215264 0)
(-1.85089 -0.217918 -1.17239e-20)
(-1.71973 -0.219346 -2.46055e-21)
(-1.58707 -0.219468 3.37013e-21)
(-1.4537 -0.218212 5.13122e-21)
(-1.32042 -0.215516 -3.58822e-21)
(-1.18811 -0.211331 0)
(-1.05769 -0.205625 0)
(-0.930082 -0.198388 0)
(-0.806248 -0.189635 -1.1469e-20)
(-0.687137 -0.179413 -5.80275e-21)
(-0.57368 -0.167802 6.63492e-21)
(-0.466771 -0.154925 0)
(-0.367239 -0.14094 5.62124e-21)
(-0.275829 -0.126049 -8.44258e-21)
(-0.193177 -0.110495 -8.83568e-21)
(-0.119785 -0.0945491 0)
(-0.0560038 -0.0785083 0)
(-0.00201385 -0.0626806 0)
(0.0421515 -0.0474069 -9.42299e-21)
(0.0766086 -0.033051 0)
(0.101739 -0.0198658 1.78023e-20)
(0.118036 -0.00803211 2.6586e-20)
(0.126146 0.00231484 -1.74117e-20)
(0.126692 0.0110849 0)
(0.120463 0.0183104 -8.41264e-21)
(0.108358 0.0241249 0)
(0.0910968 0.0283417 -1.57338e-20)
(0.0696091 0.0313238 7.83232e-21)
(0.0449531 0.033843 7.54318e-21)
(0.0178096 0.0357102 0)
(-0.0111515 0.0369315 1.90293e-20)
(-0.0414449 0.0376394 -1.17876e-20)
(-0.0725859 0.0379614 -5.12779e-21)
(-0.104098 0.0381013 0)
(-0.136008 0.0378676 -4.05715e-21)
(-0.16749 0.0369743 -1.10091e-20)
(-0.198669 0.0364836 0)
(-0.22973 0.0344848 -4.99026e-21)
(-0.259629 0.0325842 -4.12015e-21)
(-0.287997 0.0312777 -3.4171e-21)
(-0.314749 0.0306779 0)
(-0.341657 0.0295906 0)
(-0.367501 0.0282042 0)
(-0.391702 0.0265962 3.83911e-22)
(-0.41444 0.0249082 -2.07319e-22)
(-0.435771 0.0231876 0)
(-0.455684 0.0214578 -1.30226e-21)
(-0.474173 0.0197331 -1.79797e-21)
(-0.491238 0.0180241 0)
(-0.506886 0.0163394 -2.80486e-21)
(-0.521132 0.0146856 -6.00209e-21)
(-0.533995 0.0130681 3.43859e-21)
(-0.545498 0.011491 3.47889e-21)
(-0.555667 0.00995762 0)
(-0.564535 0.00847052 0)
(-0.572135 0.00703304 0)
(-0.578503 0.00565166 4.36867e-21)
(-0.583677 0.00434272 -4.39672e-21)
(-0.587675 0.00314326 -9.01768e-21)
(-0.590393 0.00211281 4.56284e-21)
(-0.591821 0.0014155 -4.65191e-21)
(-0.593278 0.000608366 -4.51773e-21)
(-0.593579 -0.00145411 0)
(-0.591278 -0.00364051 0)
(-0.588724 -0.00408163 4.6504e-21)
(-0.585967 -0.00448454 0)
(-0.581156 -0.00512951 0)
(-0.575071 -0.00556198 -8.78039e-21)
(-0.568912 -0.00574309 0)
(-0.561776 -0.00695533 -4.04776e-21)
(-0.553179 -0.00832919 3.85735e-21)
(-0.543775 -0.00905295 0)
(-0.533441 -0.0103646 -3.49904e-21)
(-0.521728 -0.0110646 0)
(-0.509598 -0.011095 0)
(-0.496182 -0.0122745 2.90768e-21)
(-0.48163 -0.0131184 -6.05291e-21)
(-0.46632 -0.0132957 2.44015e-21)
(-0.450076 -0.0146478 0)
(-0.432188 -0.0152583 0)
(-0.413531 -0.0158428 -2.12702e-21)
(-0.393653 -0.0164618 0)
(-0.372674 -0.0166279 -1.79975e-21)
(-0.35109 -0.0176769 0)
(-0.327694 -0.0186133 0)
(-0.303146 -0.0192031 0)
(-0.277659 -0.0197875 -3.66439e-22)
(-0.251093 -0.0204627 0)
(-0.223917 -0.0211208 -1.29696e-22)
(-0.195873 -0.021807 0)
(-0.166509 -0.0225641 0)
(-0.135455 -0.0224623 1.41683e-21)
(-0.103887 -0.0225403 -1.96874e-21)
(-0.0722068 -0.0220852 0)
(-0.0415637 -0.0217061 0)
(-0.0105001 -0.0212832 0)
(0.0198118 -0.0202053 1.07863e-20)
(0.0484938 -0.0179964 0)
(0.0754297 -0.0143479 -8.58382e-21)
(0.0370502 -0.357936 1.93331e-22)
(0.087258 -0.378441 1.97099e-20)
(0.123472 -0.335412 0)
(0.150921 -0.288176 -1.41755e-20)
(0.168163 -0.240935 0)
(0.176264 -0.192971 0)
(0.177184 -0.144894 -5.30985e-23)
(0.172032 -0.0974962 6.35379e-21)
(0.16139 -0.0511105 6.43543e-21)
(0.145906 -0.00628525 6.56745e-21)
(0.125938 0.0355945 0)
(0.100976 0.0738261 0)
(0.0705824 0.107868 -6.74154e-21)
(0.033701 0.137623 -1.37039e-20)
(-0.00971121 0.162689 1.37063e-20)
(-0.0604357 0.183477 0)
(-0.119897 0.201957 1.31586e-20)
(-0.188776 0.22038 -6.67189e-21)
(-0.26675 0.240307 0)
(-0.353928 0.262705 1.23908e-20)
(-0.45068 0.288167 6.3751e-21)
(-0.55713 0.316981 -1.21213e-20)
(-0.672893 0.348936 -6.28069e-21)
(-0.797165 0.383319 0)
(-0.928785 0.419033 1.21907e-20)
(-1.06625 0.45476 1.23649e-20)
(-1.20771 0.489095 0)
(-1.35109 0.520597 1.29741e-20)
(-1.49427 0.547898 0)
(-1.63522 0.569864 1.39408e-20)
(-1.77218 0.585682 7.02769e-21)
(-1.9037 0.594908 0)
(-2.02876 0.597466 0)
(-2.14674 0.593615 0)
(-2.25739 0.583885 0)
(-2.36077 0.569003 0)
(-2.45719 0.54981 0)
(-2.54712 0.527188 2.04565e-20)
(-2.63108 0.501997 -3.16521e-20)
(-2.70964 0.475024 0)
(-2.78332 0.446956 0)
(-2.85256 0.418359 0)
(-2.91775 0.38968 -6.59617e-22)
(-2.97917 0.361251 2.5213e-20)
(-3.03701 0.333298 5.26253e-20)
(-3.09141 0.305965 -5.41185e-20)
(-3.14242 0.279324 -2.7973e-20)
(-3.19004 0.253397 2.81644e-20)
(-3.23424 0.22817 3.89497e-22)
(-3.27494 0.203603 2.96063e-20)
(-3.31205 0.179648 0)
(-3.34545 0.156253 3.0359e-20)
(-3.37502 0.133369 3.52654e-22)
(-3.40061 0.110958 0)
(-3.42208 0.0889938 0)
(-3.43927 0.0674556 -3.09845e-20)
(-3.45199 0.0463232 0)
(-3.45995 0.0255517 0)
(-3.46283 0.00503521 3.11038e-20)
(-3.46028 -0.0154012 6.05155e-20)
(-3.45198 -0.0358619 -2.92594e-20)
(-3.43774 -0.0562795 0)
(-3.41742 -0.0765755 2.80455e-20)
(-3.39089 -0.0967024 0)
(-3.35804 -0.116621 2.78965e-20)
(-3.31879 -0.136288 2.5622e-20)
(-3.27311 -0.155652 -5.08739e-20)
(-3.22095 -0.17465 -2.52616e-20)
(-3.16234 -0.193215 0)
(-3.09729 -0.211271 4.45879e-20)
(-3.02587 -0.228734 0)
(-2.94817 -0.245514 5.88242e-20)
(-2.86432 -0.261516 3.73644e-20)
(-2.77449 -0.276638 3.48076e-20)
(-2.67887 -0.290774 -3.22004e-20)
(-2.57771 -0.303809 4.32533e-20)
(-2.47132 -0.315626 0)
(-2.36004 -0.326103 0)
(-2.24426 -0.335116 -2.15831e-20)
(-2.12444 -0.342536 -2.72853e-20)
(-2.00108 -0.348238 0)
(-1.87475 -0.352095 5.76842e-21)
(-1.74607 -0.35399 0)
(-1.61571 -0.35381 -1.25015e-20)
(-1.48441 -0.351458 2.29709e-21)
(-1.35296 -0.346853 -2.25676e-21)
(-1.22217 -0.339937 2.76431e-21)
(-1.09291 -0.33068 0)
(-0.966083 -0.319084 8.12803e-22)
(-0.84258 -0.305193 1.96584e-21)
(-0.723311 -0.289095 0)
(-0.609166 -0.270926 0)
(-0.501002 -0.250877 0)
(-0.399621 -0.229195 -8.78902e-21)
(-0.305755 -0.206179 0)
(-0.220039 -0.182178 0)
(-0.142998 -0.157587 0)
(-0.0750269 -0.132833 0)
(-0.0163822 -0.108363 0)
(0.0328474 -0.0846164 -1.1048e-20)
(0.0726654 -0.0620257 0)
(0.103299 -0.0409569 -1.16953e-20)
(0.125088 -0.0217088 -1.16469e-20)
(0.138513 -0.00449654 1.15636e-20)
(0.144111 0.0105407 0)
(0.142532 0.0233435 1.11606e-20)
(0.134532 0.0339474 0)
(0.120831 0.0423756 1.05634e-20)
(0.102233 0.0489222 -1.02214e-20)
(0.0796538 0.0539353 -2.99002e-20)
(0.0539934 0.0576481 0)
(0.0259827 0.0602042 -2.6863e-20)
(-0.00376717 0.0617845 -8.72976e-21)
(-0.0346784 0.0625669 0)
(-0.0662062 0.0627152 -1.40096e-20)
(-0.098096 0.0621817 -1.25338e-20)
(-0.129926 0.0610564 1.62844e-20)
(-0.161302 0.0596332 0)
(-0.192419 0.0576197 3.72342e-21)
(-0.222743 0.0556915 3.09238e-21)
(-0.251658 0.0539776 8.05426e-21)
(-0.27894 0.0518193 0)
(-0.305697 0.0488754 0)
(-0.331525 0.0460617 0)
(-0.355939 0.0432701 7.44391e-22)
(-0.378954 0.0404468 0)
(-0.400575 0.0376085 0)
(-0.420796 0.0347757 9.24154e-22)
(-0.439616 0.0319663 1.27553e-21)
(-0.457038 0.0291957 0)
(-0.473076 0.0264764 0)
(-0.487746 0.0238187 4.25296e-21)
(-0.50107 0.0212306 0)
(-0.513074 0.0187183 -5.07868e-21)
(-0.52379 0.0162867 -5.27152e-21)
(-0.533249 0.0139399 0)
(-0.541487 0.0116818 0)
(-0.548537 0.00951746 6.03972e-21)
(-0.554429 0.0074535 5.14366e-23)
(-0.559174 0.00549292 3.15575e-23)
(-0.562732 0.00360864 0)
(-0.565089 0.00162859 1.30334e-20)
(-0.567087 -0.00061972 0)
(-0.568192 -0.00210185 0)
(-0.567093 -0.0038551 0)
(-0.565727 -0.00592775 -6.48785e-21)
(-0.563837 -0.00699819 0)
(-0.560266 -0.0080199 1.27962e-20)
(-0.555469 -0.00935773 6.17833e-21)
(-0.550343 -0.0110236 0)
(-0.544631 -0.0121782 5.78822e-21)
(-0.537317 -0.0134952 0)
(-0.52942 -0.0148648 0)
(-0.520393 -0.0159947 1.58096e-20)
(-0.510117 -0.0175129 -1.0532e-20)
(-0.499521 -0.0186797 0)
(-0.487648 -0.0197583 -9.37335e-21)
(-0.474667 -0.0211463 4.32446e-21)
(-0.461024 -0.0220744 0)
(-0.445995 -0.0233082 0)
(-0.429779 -0.0245922 0)
(-0.41258 -0.025685 9.61209e-21)
(-0.394281 -0.0270799 0)
(-0.375214 -0.0279428 2.3942e-21)
(-0.354827 -0.0289293 0)
(-0.332825 -0.0303451 0)
(-0.309745 -0.0315004 0)
(-0.285639 -0.0325053 0)
(-0.260362 -0.0332992 0)
(-0.234247 -0.0341226 0)
(-0.207056 -0.035111 -1.27495e-23)
(-0.178847 -0.0364961 0)
(-0.149195 -0.0369403 -1.08455e-21)
(-0.11888 -0.0371149 3.81816e-21)
(-0.0878779 -0.0361421 0)
(-0.057608 -0.035525 0)
(-0.0271484 -0.0347875 -4.33751e-21)
(0.00267806 -0.0332212 -5.51477e-21)
(0.0312922 -0.0303339 5.69766e-21)
(0.0594308 -0.0258478 6.86328e-21)
(0.013364 -0.447113 -3.71562e-20)
(0.0389156 -0.426727 -2.68574e-20)
(0.0462044 -0.366292 -1.44317e-20)
(0.0491542 -0.304507 -6.25084e-21)
(0.0468395 -0.243648 0)
(0.0390186 -0.183722 1.11983e-20)
(0.0260652 -0.124878 -5.37037e-21)
(0.00828769 -0.0673996 0)
(-0.0141818 -0.0115976 -5.65049e-21)
(-0.0413411 0.0421525 0)
(-0.0733429 0.093328 1.07955e-20)
(-0.110515 0.141511 0)
(-0.153301 0.186424 5.50838e-21)
(-0.202315 0.227971 1.08612e-20)
(-0.258296 0.266357 -1.06667e-20)
(-0.322186 0.302373 0)
(-0.394751 0.337376 -1.02362e-20)
(-0.476327 0.372784 0)
(-0.566918 0.409654 0)
(-0.666246 0.44854 -9.69933e-21)
(-0.773688 0.489486 0)
(-0.888213 0.532048 8.69721e-23)
(-1.0084 0.575289 0)
(-1.13252 0.617883 0)
(-1.25866 0.658291 2.26438e-22)
(-1.38485 0.694943 -9.86718e-21)
(-1.5092 0.726418 -1.05995e-20)
(-1.63002 0.751558 -1.04557e-20)
(-1.74597 0.76955 0)
(-1.8561 0.77998 -2.3485e-20)
(-1.95991 0.782829 0)
(-2.05729 0.778434 -1.34287e-20)
(-2.14847 0.767413 0)
(-2.23392 0.750583 0)
(-2.31429 0.728867 1.55788e-20)
(-2.39027 0.703223 0)
(-2.46254 0.674572 -1.70731e-20)
(-2.5317 0.643755 8.84162e-22)
(-2.59828 0.611505 3.62827e-20)
(-2.66264 0.578428 -3.8579e-20)
(-2.72505 0.545009 0)
(-2.78565 0.511613 0)
(-2.84449 0.478498 -2.20143e-20)
(-2.90152 0.445834 0)
(-2.95664 0.413719 -2.20478e-20)
(-3.00969 0.382192 2.26549e-20)
(-3.06048 0.35125 2.32182e-20)
(-3.10878 0.32086 0)
(-3.15438 0.29097 -2.42008e-20)
(-3.19703 0.261517 -2.4614e-20)
(-3.23648 0.232434 5.08725e-20)
(-3.27248 0.203656 -2.52717e-20)
(-3.30479 0.175123 -2.55118e-20)
(-3.33314 0.146782 0)