/*--------------------------------*- C++ -*----------------------------------*\
  =========                 |
  \\      /  F ield         | OpenFOAM: The Open Source CFD Toolbox
   \\    /   O peration     | Website:  https://openfoam.org
    \\  /    A nd           | Version:  9
     \\/     M anipulation  |
\*---------------------------------------------------------------------------*/
FoamFile
{
    format      ascii;
    class       volScalarField;
    location    "0.11";
    object      epsilon;
}
// * * * * * * * * * * * * * * * * * * * * * * * * * * * * * * * * * * * * * //

dimensions      [0 2 -3 0 0 0 0];

internalField   nonuniform List<scalar> 
12225
(
278.159
262.749
248.125
235.308
225.116
217.864
213.526
211.851
212.471
214.975
218.954
224.043
229.927
236.35
243.117
250.084
257.219
267.898
60.2779
84.9031
95.966
105.268
116.736
131.107
148.317
167.962
189.48
212.264
235.75
259.459
283.025
306.206
328.904
351.082
373.254
394.998
25.155
35.8069
42.7816
47.9103
52.6492
57.6248
63.1287
69.2962
76.1572
83.6724
91.7636
100.337
109.302
118.579
128.122
137.916
148.036
158.586
17.4898
21.2031
24.5476
27.3835
29.8972
32.258
34.5872
36.9712
39.4642
42.096
44.879
47.8158
50.9047
54.1452
57.5422
61.1142
64.8964
68.9339
15.4794
16.7246
18.1342
19.5129
20.8135
22.0394
23.2108
24.3522
25.4854
26.627
27.7889
28.9799
30.2068
31.4766
32.7979
34.1838
35.6529
37.2172
14.9062
15.2316
15.7298
16.3078
16.9123
17.5163
18.1088
18.6876
19.2555
19.8163
20.3743
20.9337
21.4985
22.0731
22.6627
23.2743
23.917
24.5926
14.7446
14.7368
14.8289
14.9946
15.2087
15.4517
15.7099
15.9752
16.2432
16.512
16.7811
17.051
17.3226
17.5978
17.8787
18.1689
18.4726
18.789
14.7012
14.5819
14.51
14.4828
14.4936
14.5342
14.597
14.6758
14.766
14.8645
14.9692
15.0788
15.1928
15.3113
15.4349
15.565
15.7034
15.8491
14.6902
14.5372
14.4065
14.2998
14.2165
14.1547
14.1115
14.0841
14.0698
14.0663
14.0719
14.0852
14.1051
14.1313
14.1636
14.2023
14.2482
14.3006
14.6875
14.5252
14.376
14.2407
14.1196
14.0125
13.9187
13.8372
13.7667
13.7063
13.6548
13.6114
13.5752
13.5459
13.5232
13.507
13.4976
13.4949
14.6868
14.5221
14.3677
14.2234
14.0891
13.9648
13.8501
13.7446
13.6478
13.5592
13.4783
13.4045
13.3376
13.277
13.2227
13.1747
13.133
13.0978
14.6866
14.5213
14.3656
14.2189
14.0809
13.9513
13.8297
13.7157
13.6091
13.5094
13.4164
13.3297
13.249
13.1741
13.105
13.0415
12.9838
12.9325
14.6865
14.521
14.3649
14.2175
14.0783
13.9469
13.8228
13.7057
13.5952
13.4909
13.3926
13.3001
13.213
13.1312
13.0547
12.9834
12.9174
12.8573
14.6865
14.5209
14.3646
14.2169
14.0774
13.9454
13.8206
13.7024
13.5906
13.4847
13.3845
13.2897
13.2
13.1154
13.0357
12.9608
12.8909
12.8265
14.6864
14.5207
14.3643
14.2166
14.0769
13.9448
13.8198
13.7014
13.5893
13.483
13.3823
13.2869
13.1966
13.1112
13.0305
12.9545
12.8831
12.817
14.6864
14.5206
14.3642
14.2164
14.0767
13.9445
13.8195
13.701
13.5889
13.4826
13.3819
13.2865
13.1961
13.1106
13.0297
12.9533
12.8815
12.8147
14.6863
14.5206
14.364
14.2162
14.0765
13.9443
13.8192
13.7008
13.5887
13.4825
13.3818
13.2864
13.196
13.1105
13.0295
12.953
12.8808
12.8135
14.6863
14.5205
14.3639
14.2161
14.0763
13.9441
13.8191
13.7007
13.5886
13.4823
13.3817
13.2863
13.1959
13.1102
13.029
12.9522
12.8795
12.8116
14.6863
14.5204
14.3639
14.216
14.0763
13.9441
13.8191
13.7007
13.5885
13.4823
13.3816
13.2861
13.1955
13.1096
13.0281
12.9507
12.8775
12.8088
14.6863
14.5205
14.3639
14.2161
14.0764
13.9443
13.8192
13.7009
13.5887
13.4824
13.3816
13.286
13.1953
13.1091
13.0273
12.9496
12.8759
12.8066
14.6863
14.5205
14.364
14.2163
14.0766
13.9446
13.8197
13.7014
13.5894
13.4833
13.3826
13.2871
13.1965
13.1105
13.0288
12.9512
12.8775
12.8083
14.6863
14.5206
14.3643
14.2168
14.0776
13.9461
13.8219
13.7045
13.5936
13.4888
13.3897
13.2959
13.2072
13.1233
13.0438
12.9686
12.8974
12.8308
14.6865
14.5212
14.366
14.2203
14.0838
13.9562
13.8371
13.7258
13.622
13.5252
13.4349
13.3506
13.2719
13.1984
13.1298
13.0657
13.0058
12.9506
14.6876
14.5263
14.3792
14.2464
14.1277
14.0223
13.929
13.8467
13.7739
13.7097
13.653
13.6027
13.5583
13.5189
13.484
13.4532
13.426
13.4027
14.6975
14.5659
14.4695
14.4052
14.3676
14.3512
14.3508
14.3622
14.3823
14.4087
14.4397
14.4741
14.511
14.5499
14.5905
14.6325
14.6757
14.7201
14.7729
14.8154
14.9532
15.147
15.3682
15.5989
15.8294
16.0546
16.2729
16.484
16.6886
16.8874
17.0816
17.2721
17.4598
17.6456
17.83
18.0128
15.2536
16.0981
17.0355
17.9166
18.7133
19.4343
20.0933
20.7049
21.2827
21.8374
22.3774
22.9091
23.4371
23.9646
24.4938
25.0261
25.5622
26.0999
18.0133
21.9072
24.8062
26.9184
28.6247
30.1267
31.5277
32.8922
34.2604
35.655
37.0879
38.5641
40.084
41.6453
43.2439
44.8753
46.5345
48.2097
33.749
45.0963
50.6751
54.2326
57.4014
60.6521
64.1384
67.9056
71.9424
76.2112
80.6671
85.2661
89.9673
94.7346
99.5376
104.352
109.168
113.959
163.206
157.141
151.286
145.747
140.726
136.339
132.627
129.582
127.167
125.324
123.992
123.109
122.613
122.448
122.566
122.92
123.473
124.187
37.1639
53.4627
70.8781
82.088
88.5063
91.6146
92.3889
91.4143
89.0355
85.8427
82.8886
79.7765
76.2589
72.1598
67.3994
62.0857
56.4426
52.7211
51.9299
53.9816
58.6216
65.4056
73.8337
83.4955
94.1111
105.488
117.465
129.894
142.639
155.586
168.645
181.754
194.872
207.987
221.117
234.329
247.76
260.904
272.692
282.991
291.684
298.664
303.843
307.168
308.622
308.238
306.093
302.311
297.065
290.568
283.076
274.878
266.303
257.721
249.552
242.269
236.344
231.986
228.408
225.207
222.33
219.789
217.599
215.766
214.283
213.13
212.279
211.692
211.328
211.141
211.086
211.122
211.21
211.317
211.418
211.492
211.524
211.506
211.431
211.296
211.1
210.844
210.531
210.171
209.782
209.395
209.059
208.83
208.66
208.524
208.41
208.313
208.236
208.185
208.172
208.209
208.313
208.502
208.796
209.215
209.781
210.519
211.452
212.608
214.015
215.705
217.715
220.082
222.791
225.801
229.081
232.6
236.328
240.236
244.292
248.469
252.74
257.079
261.469
265.893
270.341
274.808
279.292
283.796
288.326
292.89
297.497
302.16
306.891
311.703
316.607
321.617
326.744
332
337.395
342.939
348.643
354.513
360.558
366.785
373.197
379.8
386.594
393.58
400.755
408.111
415.636
423.314
431.119
439.019
446.958
454.814
462.272
468.63
472.731
473.711
471.616
466.61
458.972
449.079
437.368
424.286
410.229
395.484
380.184
364.298
347.632
329.838
310.43
288.806
264.407
236.551
204.352
168.588
129.314
87.1709
15.2375
12.0886
9.82875
8.33257
80.3067
76.6696
74.5493
71.599
68.3441
65.2949
62.7155
60.7477
59.517
59.4116
60.6771
62.998
66.0777
69.6111
73.2692
76.9753
80.0284
82.8711
85.902
88.8328
91.3172
93.2668
94.8065
96.129
97.4009
98.7337
100.193
101.816
103.631
105.66
107.925
110.445
113.242
116.34
119.77
123.571
127.792
132.416
136.911
141.075
144.786
147.937
150.437
152.212
153.21
153.408
152.807
151.437
149.354
146.638
143.386
139.709
135.726
131.559
127.325
123.127
119.047
115.139
111.423
108.064
105.01
102.235
99.743
97.5344
95.606
93.9478
92.5444
91.3765
90.4212
89.6537
89.0484
88.5795
88.2224
87.9544
87.7554
87.6081
87.4988
87.4165
87.3537
87.3051
87.268
87.2413
87.2259
87.2247
87.2438
87.2943
87.3933
87.5812
87.8395
88.1018
88.3466
88.5742
88.7849
88.9781
89.1532
89.3098
89.4483
89.57
89.6773
89.7742
89.8657
89.9583
90.0599
90.1798
90.3282
90.5162
90.7562
91.0592
91.4509
91.9121
92.4219
92.9672
93.5377
94.124
94.7169
95.3075
95.8872
96.4477
96.9818
97.4834
97.9475
98.3705
98.7502
99.0854
99.3766
99.6248
99.8324
100.002
100.137
100.241
100.318
100.372
100.406
100.424
100.429
100.425
100.414
100.4
100.383
100.367
100.353
100.343
100.337
100.335
100.339
100.345
100.353
100.36
100.362
100.359
100.357
100.378
100.465
100.719
101.384
102.987
105.173
107.517
109.802
111.87
113.72
115.334
116.65
117.541
117.809
117.186
115.367
112.064
107.085
100.393
92.1295
82.7159
72.6021
62.3587
52.402
42.6922
33.2619
26.8371
22.6262
21.6788
102.715
87.7678
79.273
72.8291
67.8262
64.2478
62.0932
61.4084
62.5011
65.1519
69.0696
74.0198
79.934
87.0536
94.3528
101.812
108.681
113.961
116.916
117.479
116.266
114.167
111.967
110.187
109.085
108.741
109.141
110.232
111.962
114.282
117.154
120.544
124.419
128.744
133.477
138.57
143.966
149.324
154.384
158.984
162.982
166.25
168.676
170.17
170.672
170.155
168.625
166.122
162.718
158.509
153.613
148.163
142.297
136.153
129.865
123.554
117.326
111.272
105.472
100.114
95.2535
90.8146
86.7921
83.1886
80.0025
77.2258
74.8449
72.8405
71.1893
69.8643
68.8361
68.0733
67.5441
67.2165
67.0593
67.0433
67.1413
67.3292
67.5859
67.8933
68.2366
68.6041
68.9866
69.3775
69.7718
70.1661
70.5572
70.942
71.313
71.6628
71.9723
72.2327
72.4438
72.6052
72.7167
72.7786
72.7921
72.7592
72.6834
72.5693
72.4232
72.2522
72.0646
71.8693
71.6754
71.4916
71.3258
71.1866
71.0865
71.018
70.9759
70.9556
70.9531
70.964
70.9836
71.0069
71.0282
71.0422
71.0431
71.0258
70.9855
70.918
70.8199
70.6887
70.5228
70.3217
70.0856
69.8156
69.5134
69.1812
68.8216
68.4375
68.0318
67.6073
67.1669
66.7132
66.2486
65.7753
65.2955
64.8107
64.3227
63.8326
63.3414
62.8499
62.3585
61.8673
61.3759
60.8842
60.3923
59.9019
59.419
58.9579
58.545
58.2205
58.0307
58.0024
58.1035
58.2808
58.502
58.7713
58.9637
58.962
58.7077
58.1735
57.3358
56.1654
54.6234
52.6626
50.2397
47.3298
43.9426
40.149
36.0597
31.8171
27.572
23.4468
19.6543
16.4397
13.9043
12.2913
120.364
93.3087
83.1095
76.8512
72.5077
69.9248
69.303
71.0527
74.8152
80.0214
85.9331
92.3308
99.1534
106.492
114.181
121.84
128.572
133.384
135.802
136.105
135.078
133.612
132.415
131.919
132.315
133.63
135.807
138.764
142.419
146.707
151.573
156.971
162.852
169.161
175.826
182.752
189.81
196.487
202.577
207.899
212.288
215.594
217.688
218.476
217.9
215.943
212.635
208.047
202.29
195.504
187.856
179.525
170.696
161.552
152.267
142.999
133.889
125.056
116.607
108.774
101.634
95.0833
89.1066
83.7032
78.8678
74.5889
70.8483
67.6228
64.8852
62.6049
60.7487
59.2818
58.1681
57.3707
56.8524
56.5768
56.5081
56.6124
56.8577
57.2147
57.6569
58.1606
58.7052
59.2728
59.848
60.4172
60.9688
61.4922
61.9774
62.4158
62.7967
63.1078
63.3507
63.5265
63.6361
63.681
63.6635
63.587
63.456
63.2763
63.0546
62.7984
62.5158
62.2149
61.9035
61.5891
61.2786
60.9785
60.7001
60.4426
60.2056
59.9881
59.789
59.6061
59.4368
59.2777
59.1248
58.9738
58.8199
58.6586
58.4852
58.2956
58.086
57.8536
57.5963
57.3128
57.0027
56.6666
56.3057
55.9217
55.5171
55.0943
54.6561
54.2055
53.745
53.2774
52.8052
52.3304
51.8551
51.3811
50.9098
50.4424
49.9799
49.523
49.072
48.6274
48.1894
47.7584
47.3353
46.9225
46.5247
46.1506
45.813
45.528
45.3117
45.1737
45.1107
45.108
45.1449
45.1932
45.2146
45.1714
44.9832
44.5758
43.9053
42.9359
41.641
40.0055
38.0277
35.7221
33.1199
30.2741
27.2592
24.17
21.115
18.1973
15.511
13.1271
11.0919
9.46294
141.123
108.173
97.8829
91.3104
86.5384
83.9599
84.166
86.8266
90.8928
96.0331
101.768
107.773
113.974
120.479
127.313
134.196
140.531
145.722
149.537
152.205
154.239
156.202
158.54
161.526
165.276
169.801
175.057
180.985
187.526
194.629
202.245
210.32
218.788
227.563
236.536
245.573
254.372
262.417
269.533
275.527
280.207
283.399
284.957
284.775
282.795
279.014
273.484
266.315
257.663
247.725
236.726
224.905
212.504
199.76
186.895
174.108
161.58
149.46
137.88
127.186
117.346
108.269
99.9428
92.3653
85.5263
79.4075
73.9825
69.2191
65.0808
61.5281
58.5201
56.0151
53.9713
52.3472
51.1017
50.1946
49.5864
49.2385
49.1137
49.1763
49.3924
49.7302
50.1604
50.6562
51.1934
51.7504
52.3082
52.85
53.3613
53.8294
54.2452
54.5917
54.8672
55.071
55.2031
55.2649
55.2588
55.1884
55.0586
54.8752
54.6449
54.3753
54.074
53.7489
53.4075
53.0563
52.7016
52.3569
52.0253
51.7088
51.4087
51.1259
50.8601
50.6104
50.3753
50.1521
49.9378
49.7286
49.5205
49.3093
49.0907
48.8609
48.6163
48.3543
48.0727
47.7704
47.447
47.103
46.7398
46.3592
45.9637
45.5559
45.1387
44.7152
44.2882
43.8604
43.4345
43.0125
42.5965
42.188
41.7884
41.3984
41.0188
40.6498
40.2916
39.944
39.6071
39.2811
38.9668
38.6661
38.3826
38.1218
37.891
37.6982
37.551
37.4543
37.4089
37.4096
37.4462
37.5025
37.5562
37.5781
37.5331
37.3579
36.9954
36.4007
35.5336
34.3626
32.8711
31.0612
28.9574
26.6077
24.0835
21.4733
18.872
16.3673
14.0313
11.9189
10.0668
8.49967
163.384
131.736
122.349
115.277
109.606
106.275
105.397
106.009
108.16
111.476
115.546
120.135
125.251
131.038
137.559
144.644
151.921
159.014
165.741
172.159
178.483
184.969
191.825
199.177
207.075
215.52
224.485
233.936
243.838
254.149
264.822
275.79
286.964
298.228
309.444
320.457
330.66
339.873
347.892
354.498
359.468
362.594
363.693
362.63
359.328
353.777
346.043
336.265
324.644
311.435
296.923
281.412
265.207
248.6
231.863
215.241
198.953
183.176
168.153
154.275
141.34
129.327
118.244
108.094
98.8701
90.5508
83.1041
76.4893
70.6594
65.5636
61.1491
57.3628
54.1521
51.4661
49.256
47.475
46.0785
45.024
44.2707
43.7794
43.5125
43.4342
43.5104
43.7089
43.9999
44.3559
44.752
45.1662
45.5788
45.9732
46.3352
46.6513
46.9097
47.1059
47.2371
47.3029
47.3043
47.2441
47.1267
46.9572
46.7419
46.4878
46.2022
45.8924
45.5657
45.2293
44.8897
44.5575
44.2346
43.9233
43.6253
43.3416
43.0727
42.818
42.5761
42.345
42.1217
41.9031
41.6853
41.4645
41.2371
40.9993
40.7482
40.4814
40.1972
39.8949
39.5744
39.2368
38.8837
38.5173
38.1404
37.756
37.3674
36.9778
36.5902
36.2076
35.8325
35.4669
35.1128
34.7713
34.4433
34.1291
33.8289
33.5421
33.2682
33.0065
32.7564
32.5176
32.2904
32.0761
31.8772
31.6976
31.5418
31.4149
31.3216
31.2658
31.2495
31.2713
31.3263
31.4052
31.4938
31.5716
31.6122
31.5778
31.4126
31.0735
30.5174
29.7064
28.613
27.2264
25.5571
23.6401
21.5342
19.3165
17.072
14.8824
12.8175
10.9326
9.26388
7.83237
180.937
165.292
154.54
146.273
139.487
134.081
129.827
127.441
126.87
127.808
129.98
133.285
137.785
143.6
150.755
159.097
168.334
178.156
188.338
198.781
209.473
220.447
231.734
243.344
255.273
267.502
280.012
292.781
305.783
318.982
332.324
345.733
359.102
372.292
385.135
397.426
408.604
418.681
427.471
434.729
440.19
443.588
444.677
443.259
439.2
432.455
423.073
411.204
397.087
381.028
363.378
344.508
324.784
304.555
284.136
263.816
243.838
224.431
206.173
188.951
172.727
157.535
143.412
130.379
118.441
107.585
97.7842
88.9967
81.172
74.2519
68.1739
62.8734
58.2855
54.3469
50.9969
48.1778
45.8356
43.9197
42.3828
41.1808
40.2719
39.6167
39.1779
38.9202
38.8104
38.8174
38.9125
39.0696
39.2653
39.4791
39.6932
39.8925
40.0615
40.1898
40.2709
40.3014
40.2802
40.2083
40.0885
39.9249
39.7227
39.4879
39.2268
38.9461
38.6526
38.3527
38.0522
37.7581
37.4718
37.1953
36.9301
36.6773
36.4369
36.2083
35.9902
35.7802
35.5758
35.3735
35.17
34.9615
34.7447
34.5164
34.2741
34.0157
33.7402
33.4473
33.1377
32.8128
32.4748
32.1265
31.771
31.4119
31.0527
30.6969
30.3478
30.0082
29.6806
29.3669
29.0684
28.7858
28.5194
28.2688
28.0331
27.8111
27.6013
27.4022
27.2125
27.0313
26.8584
26.6945
26.5416
26.4025
26.2809
26.181
26.107
26.0627
26.0511
26.0728
26.1262
26.2059
26.3025
26.4015
26.4816
26.5164
26.4602
26.2729
25.9136
25.3444
24.5353
23.4698
22.1498
20.5988
18.8625
17.0046
15.0992
13.2202
11.4343
9.79501
8.33867
7.08664
771.874
251.257
196.565
181.471
171.328
162.537
155.561
150.662
147.823
146.911
147.821
150.544
155.146
161.678
170.091
180.194
191.692
204.257
217.601
231.496
245.782
260.343
275.096
289.976
304.938
319.947
334.981
350.021
365.045
380.021
394.898
409.602
424.027
438.034
451.444
464.02
475.557
486.167
495.667
503.782
510.188
514.537
516.486
515.724
512.009
505.205
495.302
482.43
466.844
448.905
429.032
407.671
385.257
362.189
338.826
315.507
292.443
270.388
249.221
228.953
209.656
191.407
174.274
158.306
143.532
129.962
117.587
106.379
96.2982
87.2903
79.2925
72.2358
66.0479
60.6554
55.9861
51.9705
48.5425
45.6404
43.207
41.1892
39.5381
38.2084
37.158
36.3477
35.7409
35.3035
35.0039
34.8131
34.7047
34.6551
34.644
34.6538
34.6664
34.6673
34.6461
34.5964
34.5144
34.3992
34.2513
34.0732
33.8686
33.6418
33.3981
33.1429
32.8816
32.6196
32.3618
32.1109
31.8684
31.6358
31.4142
31.2039
31.0046
30.8153
30.6341
30.4586
30.2858
30.1123
29.9348
29.7496
29.5536
29.3439
29.1184
28.8756
28.615
28.337
28.0427
27.7342
27.4143
27.0863
26.7539
26.4209
26.0914
25.7688
25.4566
25.1575
24.8737
24.6066
24.357
24.1249
23.9097
23.71
23.524
23.3497
23.1845
23.0262
22.8728
22.7228
22.5756
22.4315
22.2921
22.16
22.0386
21.9321
21.845
21.7816
21.746
21.7405
21.7656
21.819
21.8946
21.9815
22.0631
22.1175
22.1094
22.0021
21.7582
21.3425
20.7268
19.8938
18.8417
17.587
16.1651
14.6278
13.0372
11.4577
9.94864
8.5592
7.3229
6.26022
181.217
237.644
224.545
211.15
199.756
189.832
181.607
175.391
171.364
169.598
170.133
173.011
178.266
185.868
195.682
207.456
220.851
235.495
251.033
267.156
283.612
300.204
316.786
333.251
349.527
365.569
381.348
396.852
412.072
426.998
441.608
455.866
469.707
483.034
495.712
507.531
518.862
529.754
540.003
549.308
557.291
563.519
567.52
568.825
567.019
561.798
553.021
540.741
525.205
506.819
486.082
463.531
439.69
415.002
389.889
364.822
340.385
316.506
293.262
270.757
249.1
228.392
208.722
190.168
172.789
156.627
141.706
128.028
115.58
104.327
94.2235
85.2089
77.2152
70.168
63.9903
58.6047
53.9355
49.9102
46.4604
43.5227
41.0383
38.9531
37.2179
35.7871
34.619
33.6753
32.9209
32.3234
31.8537
31.4856
31.1957
30.9645
30.771
30.5975
30.4309
30.262
30.0846
29.8951
29.6922
29.4762
29.2487
29.0126
28.7713
28.5286
28.2886
28.0551
27.8318
27.6182
27.4154
27.2243
27.045
26.8773
26.7202
26.5718
26.43
26.2916
26.1535
26.0119
25.8634
25.7044
25.5318
25.3431
25.1365
24.911
24.6667
24.4044
24.126
23.8341
23.5322
23.2242
22.9142
22.6065
22.3053
22.0142
21.7366
21.4749
21.2309
21.0054
20.7985
20.6094
20.4364
20.2773
20.1293
19.9893
19.8542
19.7209
19.5869
19.4503
19.31
19.1661
19.0201
18.8744
18.7324
18.5986
18.4779
18.3754
18.296
18.2436
18.2207
18.227
18.2591
18.309
18.3634
18.4033
18.4025
18.3269
18.1431
17.8199
17.3322
16.6647
15.8149
14.7951
13.6334
12.3714
11.06
9.75296
8.50059
7.34514
6.31571
5.43037
179.778
280.113
251.013
235.476
224.451
215.058
207.105
200.95
196.95
195.349
196.289
199.836
205.979
214.613
225.522
238.387
252.821
268.406
284.743
301.477
318.31
335.006
351.388
367.327
382.737
397.571
411.816
425.492
438.639
451.318
463.592
475.514
487.114
498.386
509.265
519.881
530.711
541.698
552.646
563.278
573.234
582.049
589.154
593.903
595.648
593.832
588.078
578.271
564.59
547.461
527.471
505.258
481.524
456.625
431.708
406.791
382.034
357.573
333.532
310.026
287.161
265.037
243.753
223.401
204.067
185.826
168.738
152.847
138.178
124.736
112.505
101.455
91.5357
82.6883
74.8432
67.9255
61.8573
56.5608
51.9599
47.982
44.5586
41.6264
39.1269
37.0066
35.2168
33.713
32.455
31.4061
30.5334
29.8074
29.2016
28.6934
28.2581
27.876
27.5316
27.2132
26.9122
26.6226
26.3407
26.0647
25.7942
25.5301
25.2738
25.0276
24.7938
24.5748
24.3728
24.1854
24.0127
23.8547
23.7106
23.5793
23.4588
23.3467
23.2399
23.1349
23.028
22.9151
22.7924
22.6564
22.504
22.3328
22.1414
21.9293
21.697
21.4462
21.1792
20.8995
20.6111
20.3186
20.0265
19.7396
19.4622
19.198
18.9502
18.7209
18.5112
18.3215
18.1508
17.9975
17.859
17.7322
17.6134
17.4988
17.3844
17.2668
17.1429
17.0104
16.8681
16.716
16.5551
16.3878
16.2179
16.0496
15.8882
15.7396
15.6092
15.5024
15.4227
15.372
15.3487
15.3473
15.3572
15.3629
15.343
15.2679
15.108
14.8364
14.4319
13.8818
13.1841
12.3488
11.3984
10.3661
9.29268
8.22154
7.19374
6.24386
5.39596
4.66513
814.607
329.901
271.134
254.415
244.992
237.44
231.08
226.222
223.311
222.693
224.574
229.027
236.003
245.334
256.741
269.853
284.242
299.465
315.097
330.762
346.144
360.992
375.118
388.397
400.762
412.212
422.804
432.657
441.929
450.81
459.488
468.134
476.878
485.799
494.92
504.565
514.738
525.337
536.27
547.438
558.664
569.625
579.783
588.386
594.54
597.369
596.149
590.447
580.259
565.975
548.303
527.856
505.975
483.135
459.736
436.076
412.375
388.788
365.423
342.369
319.703
297.504
275.858
254.854
234.589
215.158
196.654
179.159
162.742
147.454
133.325
120.367
108.569
97.9033
88.3244
79.7751
72.1886
65.4922
59.6103
54.4671
49.9885
46.1037
42.7462
39.8544
37.3717
35.2463
33.4315
31.8849
30.5687
29.449
28.4957
27.6794
26.9732
26.3549
25.8067
25.3142
24.8664
24.4547
24.0732
23.7177
23.3856
23.0756
22.7873
22.5211
22.2777
22.0579
21.8627
21.6887
21.5346
21.3992
21.2807
21.1767
21.0846
21.0009
20.9218
20.843
20.7602
20.6689
20.5648
20.4443
20.3041
20.1422
19.9573
19.7495
19.5198
19.2706
19.0052
18.7276
18.4428
18.1559
17.8723
17.5968
17.3342
17.0883
16.8618
16.6565
16.4731
16.3111
16.1687
16.0436
15.9322
15.8305
15.7342
15.6388
15.5399
15.4333
15.3159
15.185
15.0393
14.8784
14.7034
14.5166
14.3212
14.1219
13.9238
13.7329
13.5554
13.3971
13.2628
13.1555
13.0753
13.0188
12.9779
12.9398
12.8871
12.7947
12.6369
12.3911
12.0399
11.5733
10.9902
10.299
9.51769
8.67248
7.79546
6.92083
6.08101
5.30337
4.60719
4.00462
180.507
307.731
280.417
267.977
261.316
256.48
252.646
249.993
248.944
249.872
253.005
258.414
266.021
275.619
286.886
299.421
312.775
326.49
340.135
353.333
365.771
377.217
387.52
396.622
404.562
411.481
417.607
423.237
428.694
434.29
440.276
446.826
454.026
461.894
470.411
479.316
488.219
497.104
506.142
515.588
525.663
536.417
547.59
558.503
568.101
575.202
578.675
577.627
571.746
561.212
547.121
530.28
511.487
491.414
470.584
449.367
428.001
406.629
385.326
364.137
343.093
322.232
301.604
281.275
261.331
241.868
222.994
204.815
187.437
170.954
155.444
140.968
127.567
115.257
104.034
93.8764
84.7434
76.5826
69.3316
62.9218
57.2816
52.3392
48.024
44.2688
41.0104
38.1902
35.7548
33.6554
31.8482
30.2942
28.9568
27.7993
26.7922
25.9106
25.1335
24.4439
23.8279
23.2741
22.774
22.321
21.9099
21.5375
21.2012
20.8994
20.6313
20.396
20.193
20.0202
19.8736
19.7504
19.6478
19.5623
19.49
19.4265
19.367
19.3064
19.2394
19.1608
19.066
18.9508
18.8121
18.6476
18.4565
18.2393
17.9979
17.7353
17.4558
17.1645
16.8674
16.5704
16.2795
16.0005
15.7381
15.4963
15.2779
15.084
14.915
14.7695
14.6453
14.5388
14.446
14.3622
14.2822
14.2012
14.1141
14.0168
13.9055
13.7776
13.6315
13.4667
13.284
13.0853
12.8737
12.6535
12.4295
12.2078
11.9943
11.7954
11.6164
11.461
11.3308
11.2237
11.1338
11.0511
10.9616
10.8439
10.6769
10.4417
10.1247
9.71817
9.22175
8.64249
7.99469
7.29885
6.57977
5.86386
5.17614
4.53781
3.96397
3.46425
831.132
346.604
290.515
277.899
273.797
272.03
271.244
271.364
272.687
275.538
280.128
286.517
294.609
304.175
314.874
326.292
337.975
349.468
360.352
370.274
378.971
386.291
392.214
396.864
400.508
403.546
406.456
409.73
413.786
418.901
425.163
432.47
440.575
449.168
457.822
465.477
471.888
477.261
482.074
486.972
492.645
499.65
508.222
518.033
528.033
536.902
543.236
545.675
543.578
537.134
526.898
513.652
498.242
481.431
463.814
445.802
427.64
409.447
391.259
373.065
354.838
336.56
318.226
299.862
281.518
263.27
245.214
227.463
210.138
193.361
177.249
161.908
147.428
133.879
121.307
109.738
99.1732
89.5966
80.9739
73.2579
66.3917
60.3119
54.9522
50.2456
46.1264
42.5321
39.4038
36.6872
34.3329
32.2964
30.5284
28.9895
27.6461
26.4697
25.4359
24.5241
23.717
23.0005
22.3627
21.7943
21.2879
20.8374
20.4383
20.087
19.7809
19.5174
19.2948
19.1111
18.9616
18.842
18.7476
18.6735
18.6145
18.5649
18.5185
18.4691
18.4105
18.3364
18.2413
18.1206
17.9708
17.7898
17.5768
17.333
17.0611
16.7651
16.4506
16.124
15.7923
15.4629
15.1427
14.8383
14.5551
14.2973
14.0676
13.8671
13.6956
13.5512
13.4308
13.3305
13.2454
13.1701
13.099
13.0268
12.9481
12.8584
12.7539
12.6317
12.4899
12.328
12.1463
11.9464
11.7308
11.5031
11.2679
11.0306
10.7968
10.5727
10.3636
10.1738
10.0056
9.85812
9.72735
9.60556
9.48163
9.33811
9.15773
8.92563
8.63103
8.26836
7.83773
7.34499
6.80138
6.22272
5.62792
5.03707
4.46919
3.94044
3.46252
3.04302
832.251
353.214
295.592
284.379
282.898
284.322
286.853
290.106
294.18
299.29
305.598
313.139
321.805
331.357
341.453
351.678
361.584
370.737
378.753
385.341
390.347
393.782
395.853
396.968
397.711
398.774
400.849
404.505
410.07
417.558
426.659
436.783
447.18
457.068
465.145
470.823
474.087
475.261
474.939
473.966
473.346
474.055
476.835
481.968
488.581
495.495
501.276
504.546
504.343
500.338
492.789
482.355
469.858
456.077
441.635
426.956
412.275
397.676
383.144
368.608
353.975
339.157
324.089
308.733
293.089
277.19
261.099
244.908
228.731
212.694
196.931
181.578
166.763
152.6
139.188
126.604
114.902
104.112
94.2429
85.2829
77.2039
69.9642
63.5126
57.7918
52.741
48.2992
44.4062
41.005
38.0417
35.4632
33.211
31.2426
29.5203
28.0115
26.6877
25.5243
24.5003
23.5978
22.8018
22.0998
21.4813
20.9379
20.4626
20.0496
19.6944
19.3929
19.1417
18.9376
18.7773
18.6553
18.5646
18.4983
18.4496
18.4108
18.3744
18.3326
18.2774
18.2015
18.0983
17.9622
17.7892
17.5769
17.3249
17.035
16.7106
16.3573
15.982
15.5927
15.1982
14.8074
14.4289
14.0704
13.7381
13.437
13.1699
12.9382
12.7411
12.5766
12.441
12.3296
12.2371
12.1575
12.0847
12.013
11.9367
11.8512
11.7523
11.637
11.5034
11.3503
11.1778
10.987
10.7796
10.5586
10.3275
10.091
9.85395
9.62181
9.39967
9.19176
9.00062
8.82642
8.66645
8.51502
8.36363
8.19834
8.00559
7.77389
7.49511
7.16529
6.78489
6.3587
5.89548
5.40731
4.90849
4.41414
3.93857
3.49397
3.08938
2.73087
817.993
354.04
297.967
288.437
289.523
294.165
300.194
306.904
314.15
321.99
330.496
339.662
349.362
359.353
369.295
378.783
387.385
394.694
400.379
404.241
406.265
406.669
405.92
404.72
403.931
404.443
407.019
412.139
419.894
429.957
441.624
453.907
465.665
475.668
482.643
486.598
487.634
485.925
481.877
476.236
470.062
464.53
460.648
458.983
459.454
461.332
463.409
464.336
463.009
458.859
451.911
442.655
431.811
420.109
408.139
396.294
384.765
373.588
362.688
351.927
341.143
330.179
318.899
307.198
295.011
282.313
269.115
255.466
241.446
227.162
212.739
198.316
184.039
170.051
156.489
143.474
131.112
119.484
108.648
98.641
89.4746
81.1425
73.6213
66.8751
60.8583
55.5196
50.8048
46.6593
43.0295
39.8424
37.0458
34.5932
32.4429
30.5578
28.9052
27.456
26.1851
25.0706
24.0937
23.2384
22.4911
21.8404
21.2766
20.7917
20.379
20.0327
19.7475
19.519
19.3424
19.2151
19.1272
19.0694
19.0321
19.0057
18.9803
18.9461
18.8933
18.8127
18.6962
18.5369
18.33
18.0728
17.7649
17.4086
17.0084
16.5713
16.1059
15.6224
15.1317
14.6449
14.1726
13.7242
13.3075
12.9286
12.5911
12.2965
12.0444
11.8322
11.656
11.5108
11.3904
11.2886
11.1988
11.1148
11.0307
10.9416
10.8432
10.7323
10.6065
10.4647
10.3062
10.1316
9.94192
9.73901
9.52548
9.30464
9.08041
8.85707
8.63893
8.4297
8.23185
8.04599
7.87044
7.70116
7.53185
7.35179
7.15071
6.92004
6.6539
6.34963
6.00794
5.63276
5.23092
4.81162
4.38565
3.96429
3.55823
3.17669
2.82668
2.51318
783.719
352.906
299.672
291.673
295.34
303.37
313.28
324.045
335.239
346.706
358.388
370.192
381.913
393.306
404.038
413.714
421.926
428.299
432.559
434.595
434.526
432.747
429.936
426.999
424.949
424.731
427.032
432.147
439.923
449.805
460.933
472.284
482.838
491.39
497.525
501.049
501.75
499.447
494.17
486.348
476.844
466.812
457.387
449.407
443.215
438.591
434.797
430.813
425.684
418.842
410.228
400.219
389.425
378.478
367.884
357.957
348.819
340.436
332.666
325.311
318.144
310.945
303.512
295.676
287.303
278.3
268.616
258.24
247.197
235.548
223.385
210.824
198
185.061
172.159
159.445
147.06
135.131
123.767
113.052
103.05
93.7979
85.3138
77.5951
70.6237
64.3691
58.7927
53.8509
49.4807
45.6136
42.201
39.1961
36.5547
34.2361
32.2033
30.4229
28.8653
27.5043
26.317
25.2836
24.3867
23.6118
22.9462
22.3793
21.9019
21.5061
21.1848
20.9315
20.74
20.6043
20.5203
20.4739
20.4521
20.4421
20.4314
20.4075
20.3581
20.2719
20.1387
19.9502
19.7003
19.3856
19.0056
18.5629
18.0631
17.5145
16.9278
16.3155
15.6912
15.0687
14.4612
13.8808
13.3375
12.8391
12.3906
11.9944
11.6503
11.3561
11.1076
10.8992
10.7246
10.5768
10.4488
10.3341
10.2263
10.1203
10.0116
9.89659
9.77291
9.63888
9.49359
9.33683
9.16891
8.99067
8.8035
8.60932
8.4106
8.2102
8.01116
7.81618
7.62716
7.44468
7.26764
7.09319
6.91683
6.73069
6.5273
6.30053
6.04637
5.76326
5.45214
5.11632
4.76121
4.39385
4.02237
3.65522
3.30038
2.96485
2.65421
2.37277
179.091
320.233
297.846
294.849
301.612
313.151
327.165
342.441
358.284
374.274
390.129
405.616
420.478
434.424
447.115
458.169
467.203
473.875
477.952
479.38
478.345
475.314
471.03
466.435
462.532
460.211
460.079
462.362
466.897
473.212
480.653
488.542
496.292
503.022
508.329
511.826
513.047
511.46
506.667
498.646
487.886
475.27
461.815
448.441
435.82
424.236
413.508
403.093
392.394
381.052
369.088
356.856
344.87
333.633
323.515
314.704
307.214
300.927
295.638
291.092
287.022
283.162
279.263
275.106
270.498
265.288
259.356
252.626
245.06
236.657
227.454
217.523
206.963
195.9
184.478
172.85
161.177
149.613
138.304
127.381
116.953
107.108
97.9101
89.3992
81.5952
74.4996
68.099
62.3644
57.226
52.6445
48.5763
44.9769
41.8018
39.0085
36.5569
34.41
32.5343
30.8993
29.4781
28.2468
27.1846
26.2734
25.4975
24.8432
24.2989
23.8541
23.4995
23.2262
23.0256
22.8888
22.8122
22.7824
22.7819
22.7943
22.8036
22.7943
22.7514
22.661
22.5108
22.2904
21.9924
21.6123
21.1491
20.6054
19.9875
19.3048
18.57
17.7977
17.0043
16.2069
15.4221
14.6654
13.9498
13.2858
12.6808
12.1386
11.6602
11.2438
10.8852
10.5788
10.3177
10.0944
9.9014
9.73151
9.57812
9.43549
9.29887
9.16454
9.02973
8.89253
8.75169
8.60648
8.45653
8.30179
8.14245
7.97905
7.81246
7.64389
7.4747
7.30617
7.13912
6.97354
6.80836
6.64135
6.46922
6.28611
6.08692
5.86757
5.6256
5.36043
5.07329
4.76719
4.44656
4.11699
3.78472
3.45615
3.13736
2.83381
2.55013
2.29028
179.092
312.93
298.585
299.613
309.785
325.194
343.768
364.196
385.544
407.101
428.315
448.737
467.974
485.66
501.429
514.912
525.751
533.642
538.387
539.956
538.548
534.623
528.892
522.248
515.637
509.906
505.668
503.22
502.548
503.409
505.464
508.453
512.282
516.253
519.943
522.836
524.227
523.252
519.11
511.346
500.024
485.649
468.997
451.005
432.658
414.722
397.508
380.913
364.69
348.735
333.205
318.462
304.936
292.989
282.833
274.514
267.939
262.915
259.195
256.501
254.553
253.075
251.804
250.496
248.929
246.906
244.259
240.855
236.592
231.409
225.281
218.221
210.281
201.543
192.12
182.146
171.776
161.17
150.491
139.897
129.534
119.528
109.987
100.994
92.6101
84.8728
77.8034
71.3683
65.5427
60.3029
55.6164
51.4452
47.7485
44.4851
41.6144
39.0976
36.8986
34.9839
33.3233
31.8895
30.6584
29.6088
28.7218
27.981
27.3721
26.8821
26.4992
26.2121
26.0097
25.8809
25.8142
25.8042
25.8282