/*--------------------------------*- C++ -*----------------------------------*\
  =========                 |
  \\      /  F ield         | OpenFOAM: The Open Source CFD Toolbox
   \\    /   O peration     | Website:  https://openfoam.org
    \\  /    A nd           | Version:  9
     \\/     M anipulation  |
\*---------------------------------------------------------------------------*/
FoamFile
{
    format      ascii;
    class       volScalarField;
    location    "0.11";
    object      k;
}
// * * * * * * * * * * * * * * * * * * * * * * * * * * * * * * * * * * * * * //

dimensions      [0 2 -2 0 0 0 0];

internalField   nonuniform List<scalar> 
12225
(
0.353468
0.333886
0.315303
0.299016
0.286065
0.276853
0.271344
0.269221
0.270018
0.273209
0.278279
0.284761
0.292254
0.300433
0.30905
0.317919
0.326998
0.340573
0.434122
0.443654
0.432578
0.428203
0.434759
0.45044
0.472548
0.498639
0.526738
0.555383
0.583573
0.610682
0.636374
0.66053
0.683231
0.704583
0.725391
0.744726
0.394977
0.4098
0.408772
0.403604
0.399865
0.398913
0.400815
0.405277
0.411872
0.420149
0.429682
0.440107
0.451132
0.462538
0.474192
0.486016
0.498129
0.510438
0.379539
0.384514
0.385964
0.384934
0.382977
0.381039
0.379578
0.378792
0.378738
0.379396
0.380706
0.382593
0.384988
0.38783
0.391082
0.394731
0.398815
0.403341
0.374946
0.375793
0.376027
0.375401
0.374158
0.372603
0.370971
0.369422
0.368049
0.366904
0.366006
0.365358
0.364956
0.364795
0.364872
0.365198
0.365795
0.366685
0.373479
0.372519
0.371679
0.370673
0.369443
0.368038
0.366531
0.364991
0.363472
0.362016
0.360647
0.359384
0.358236
0.357211
0.356318
0.355568
0.35498
0.354575
0.37301
0.371284
0.369781
0.368358
0.366938
0.365492
0.364019
0.362535
0.361056
0.359602
0.358188
0.356826
0.355526
0.354297
0.353148
0.352089
0.351137
0.350314
0.372865
0.370835
0.368992
0.367285
0.365669
0.364113
0.362597
0.361112
0.359658
0.358236
0.35685
0.355507
0.354209
0.352964
0.351778
0.350658
0.34962
0.348686
0.372821
0.37068
0.368686
0.366824
0.365073
0.363414
0.361831
0.360312
0.358847
0.357433
0.356066
0.354747
0.353476
0.352254
0.351086
0.349978
0.348941
0.347996
0.372807
0.370628
0.368575
0.366641
0.364815
0.363089
0.361451
0.359891
0.358401
0.356976
0.35561
0.3543
0.353044
0.351842
0.350696
0.34961
0.348593
0.347663
0.372802
0.37061
0.368536
0.366572
0.364712
0.362949
0.361277
0.359688
0.358176
0.356734
0.355359
0.354047
0.352795
0.351602
0.350469
0.349398
0.348396
0.34748
0.3728
0.370604
0.368522
0.366547
0.364674
0.362897
0.361209
0.359604
0.358079
0.356626
0.355243
0.353927
0.352674
0.351483
0.350354
0.34929
0.348295
0.347385
0.372798
0.3706
0.368515
0.366536
0.364657
0.362873
0.361177
0.359565
0.358032
0.356573
0.355185
0.353865
0.35261
0.351419
0.350292
0.34923
0.348238
0.347328
0.372797
0.370597
0.36851
0.366529
0.364647
0.36286
0.361161
0.359546
0.358009
0.356548
0.355157
0.353836
0.35258
0.35139
0.350264
0.349202
0.348209
0.347297
0.372796
0.370595
0.368506
0.366524
0.364641
0.362852
0.361152
0.359536
0.357999
0.356537
0.355147
0.353826
0.352571
0.351382
0.350257
0.349196
0.348201
0.347283
0.372795
0.370593
0.368503
0.36652
0.364636
0.362847
0.361147
0.35953
0.357994
0.356532
0.355144
0.353824
0.352571
0.351383
0.350258
0.349196
0.348198
0.347274
0.372794
0.370591
0.368501
0.366517
0.364633
0.362843
0.361143
0.359527
0.35799
0.35653
0.355142
0.353824
0.352571
0.351383
0.350257
0.349192
0.348188
0.347255
0.372794
0.37059
0.368499
0.366514
0.36463
0.36284
0.36114
0.359524
0.357988
0.356528
0.35514
0.353821
0.352568
0.351378
0.350248
0.349177
0.348164
0.347219
0.372794
0.37059
0.368498
0.366514
0.364629
0.36284
0.36114
0.359524
0.357988
0.356527
0.355138
0.353817
0.35256
0.351366
0.35023
0.34915
0.348126
0.347166
0.372794
0.37059
0.368499
0.366515
0.364631
0.362842
0.361142
0.359527
0.357991
0.356529
0.355139
0.353815
0.352555
0.351356
0.350213
0.349126
0.348092
0.347121
0.372794
0.370591
0.368501
0.366518
0.364635
0.362848
0.361149
0.359534
0.357999
0.356538
0.355147
0.353822
0.352561
0.351359
0.350213
0.349121
0.348081
0.347103
0.372794
0.370592
0.368504
0.366524
0.364645
0.362862
0.361167
0.359557
0.358026
0.356569
0.355182
0.353861
0.352602
0.351401
0.350255
0.349162
0.34812
0.347138
0.372796
0.370598
0.368518
0.366549
0.364685
0.362918
0.361242
0.35965
0.358136
0.356694
0.35532
0.35401
0.352758
0.351561
0.350417
0.349323
0.348277
0.347289
0.372804
0.37063
0.368591
0.366675
0.36487
0.363163
0.361543
0.359998
0.358521
0.357105
0.355747
0.354441
0.353187
0.351981
0.350822
0.349709
0.348641
0.347629
0.372854
0.370814
0.368965
0.367249
0.36562
0.364047
0.362516
0.361019
0.359554
0.358124
0.356732
0.355381
0.354074
0.352814
0.351602
0.350441
0.349331
0.348284
0.373161
0.371749
0.370535
0.369296
0.367935
0.366451
0.364881
0.363271
0.361659
0.360077
0.358545
0.357079
0.35569
0.354384
0.353162
0.352027
0.350976
0.350018
0.374771
0.375743
0.375972
0.375066
0.373389
0.371355
0.369221
0.367139
0.365198
0.363446
0.361907
0.360589
0.359488
0.358595
0.357897
0.357378
0.357022
0.356816
0.382637
0.391127
0.391319
0.387489
0.382985
0.379006
0.375888
0.373692
0.372377
0.371863
0.372054
0.372854
0.374171
0.375919
0.378024
0.380418
0.383044
0.385835
0.405992
0.411385
0.401977
0.392735
0.387616
0.386671
0.38912
0.394139
0.401007
0.409148
0.418126
0.427614
0.437371
0.447219
0.457033
0.466726
0.476259
0.485549
0.360327
0.346938
0.33401
0.321781
0.310697
0.30101
0.292814
0.28609
0.280753
0.27668
0.273733
0.271773
0.270666
0.270289
0.27053
0.271291
0.272487
0.274037
0.128034
0.176571
0.211839
0.232637
0.243839
0.248858
0.249664
0.247345
0.242512
0.23656
0.230948
0.224931
0.218002
0.209789
0.200112
0.189219
0.177913
0.172017
0.173138
0.180883
0.194051
0.211005
0.230267
0.250848
0.272178
0.293917
0.315811
0.33765
0.359259
0.380511
0.401317
0.421624
0.441409
0.460679
0.479474
0.497881
0.516034
0.534115
0.550345
0.564394
0.57619
0.585655
0.592718
0.597332
0.599481
0.599191
0.59653
0.591616
0.584615
0.575742
0.565259
0.553477
0.540756
0.527518
0.51425
0.501534
0.49005
0.480491
0.473151
0.466884
0.461161
0.455922
0.451191
0.446993
0.443336
0.440214
0.437602
0.435459
0.433734
0.432369
0.431301
0.430469
0.429812
0.429278
0.42882
0.428397
0.42798
0.427543
0.427069
0.426545
0.425959
0.425305
0.42458
0.423785
0.422933
0.422052
0.421192
0.420435
0.419804
0.419243
0.418726
0.418239
0.417779
0.41735
0.416965
0.416639
0.416392
0.416247
0.416228
0.416362
0.416677
0.417201
0.417966
0.419003
0.420345
0.422029
0.424092
0.426575
0.429518
0.432867
0.436567
0.440572
0.444836
0.449316
0.453971
0.458759
0.463644
0.468594
0.473579
0.47858
0.483581
0.488572
0.493549
0.498515
0.503474
0.508434
0.513406
0.518403
0.523438
0.528524
0.533674
0.538903
0.544221
0.549642
0.555174
0.560828
0.566613
0.572535
0.5786
0.584815
0.59118
0.5977
0.604372
0.611195
0.618165
0.625272
0.632504
0.639843
0.647266
0.654742
0.662229
0.669651
0.676814
0.683259
0.688083
0.69014
0.689127
0.685176
0.678505
0.669422
0.658305
0.645558
0.631567
0.61664
0.600956
0.584534
0.567217
0.548671
0.528375
0.505619
0.479596
0.44923
0.412983
0.370172
0.319156
0.257893
0.197347
0.154136
0.123187
0.102205
0.276909
0.350821
0.386708
0.402145
0.40595
0.403477
0.397922
0.391357
0.385517
0.381913
0.378393
0.375119
0.372127
0.369747
0.369138
0.373637
0.389114
0.41967
0.462616
0.509893
0.553806
0.590499
0.619798
0.643543
0.664113
0.683592
0.703495
0.724785
0.748009
0.773425
0.801085
0.83089
0.862627
0.895995
0.930628
0.96611
1.00199
1.03686
1.07021
1.10166
1.13059
1.15641
1.17858
1.19662
1.21014
1.21886
1.22264
1.22143
1.21532
1.20454
1.18938
1.17027
1.14766
1.1221
1.09413
1.06431
1.03317
1.00123
0.968943
0.937901
0.907947
0.879013
0.851259
0.824851
0.79992
0.776556
0.754804
0.734671
0.716128
0.699119
0.683567
0.669378
0.656451
0.64468
0.633961
0.624197
0.615296
0.607179
0.599772
0.593013
0.586844
0.581216
0.576082
0.571399
0.56713
0.563239
0.559701
0.556485
0.553679
0.551444
0.549779
0.548584
0.547787
0.547337
0.547198
0.547344
0.547758
0.548427
0.549343
0.550498
0.55189
0.553514
0.555368
0.557448
0.559752
0.562274
0.565008
0.567957
0.571065
0.574237
0.577411
0.580527
0.583519
0.586325
0.58888
0.591127
0.593013
0.594496
0.595541
0.596125
0.596235
0.595868
0.595031
0.593738
0.59201
0.589875
0.587363
0.584508
0.581347
0.577914
0.574245
0.570374
0.566335
0.562158
0.557871
0.553498
0.549062
0.544582
0.540074
0.53555
0.531019
0.526486
0.521953
0.517415
0.512865
0.508288
0.503659
0.498948
0.494113
0.489112
0.483905
0.478481
0.472879
0.467194
0.461602
0.456458
0.451757
0.447565
0.444136
0.441729
0.440332
0.439787
0.439761
0.439721
0.43893
0.436489
0.431416
0.422773
0.409859
0.392405
0.370646
0.345485
0.318293
0.290717
0.264238
0.239766
0.217219
0.198814
0.186321
0.190422
0.354927
0.420746
0.450976
0.463165
0.465873
0.46475
0.463453
0.464741
0.471722
0.481229
0.491458
0.500904
0.509344
0.519394
0.536567
0.568057
0.616868
0.678145
0.741341
0.796993
0.840937
0.873929
0.899266
0.920693
0.941263
0.963001
0.987022
1.01381
1.04345
1.07588
1.11088
1.14821
1.1876
1.22872
1.27123
1.31475
1.35884
1.40174
1.44283
1.4814
1.51667
1.5479
1.57438
1.59548
1.6107
1.61967
1.62218
1.61816
1.60771
1.59109
1.56868
1.54098
1.50857
1.47212
1.43229
1.38979
1.34527
1.2994
1.25279
1.20699
1.16284
1.12007
1.07886
1.03946
1.0021
0.966959
0.93416
0.903782
0.875858
0.850377
0.82729
0.806516
0.787947
0.771452
0.756888
0.744097
0.732923
0.723204
0.714789
0.707528
0.701287
0.695939
0.691369
0.687477
0.684169
0.681362
0.678977
0.676942
0.675185
0.673643
0.672364
0.671363
0.67061
0.670082
0.669764
0.669647
0.669726
0.670002
0.670478
0.67116
0.672056
0.673171
0.674511
0.676074
0.677852
0.67983
0.681981
0.684253
0.686546
0.688847
0.691117
0.693305
0.695355
0.697207
0.698802
0.700082
0.700996
0.701499
0.701552
0.701126
0.700203
0.698772
0.696833
0.694395
0.691476
0.688101
0.684301
0.680115
0.675583
0.670748
0.665656
0.660349
0.654872
0.649265
0.643567
0.63781
0.632026
0.626239
0.620471
0.614736
0.609046
0.603405
0.597813
0.592263
0.586744
0.581235
0.57571
0.570134
0.564466
0.558662
0.552692
0.546554
0.540298
0.534015
0.527779
0.521524
0.515021
0.507962
0.500001
0.490853
0.480523
0.469147
0.456779
0.443433
0.429125
0.413849
0.397558
0.380169
0.361589
0.341758
0.320709
0.298625
0.275855
0.252855
0.230168
0.208397
0.188238
0.170597
0.156231
0.147542
0.418609
0.478168
0.515765
0.533838
0.540538
0.54307
0.54718
0.557937
0.573545
0.591485
0.609431
0.627191
0.646612
0.672346
0.71032
0.764001
0.83088
0.902842
0.970617
1.02831
1.07468
1.11183
1.14317
1.17196
1.20063
1.23069
1.26287
1.29743
1.33439
1.37369
1.41521
1.45881
1.50431
1.55146
1.5999
1.64914
1.69849
1.74593
1.7908
1.83232
1.86963
1.90193
1.92845
1.94854
1.96166
1.96741
1.96558
1.95611
1.93916
1.91503
1.88417
1.84718
1.80473
1.75758
1.70651
1.65234
1.59585
1.53779
1.47891
1.4209
1.36481
1.31033
1.25768
1.20713
1.15896
1.11338
1.07055
1.03061
0.993618
0.959612
0.928584
0.900496
0.875277
0.852828
0.833024
0.81572
0.80075
0.787934
0.777082
0.767999
0.760488
0.754358
0.749421
0.745503
0.742437
0.740074
0.738274
0.736912
0.735877
0.735069
0.734419
0.733937
0.733608
0.733418
0.733357
0.733418
0.7336
0.733908
0.734348
0.734928
0.735656
0.736537
0.737571
0.738752
0.740065
0.741483
0.742967
0.744468
0.745946
0.747397
0.748792
0.750091
0.751247
0.752208
0.752923
0.753342
0.753417
0.753106
0.752371
0.751182
0.749517
0.747363
0.744716
0.741583
0.737977
0.733924
0.729457
0.724614
0.719442
0.71399
0.708308
0.702451
0.696468
0.69041
0.684322
0.678245
0.672214
0.666259
0.660402
0.65466
0.649041
0.643546
0.638171
0.6329
0.627714
0.622584
0.617477
0.612354
0.607172
0.601892
0.596488
0.590953
0.585308
0.57959
0.573828
0.568004
0.562021
0.555712
0.548856
0.541184
0.532387
0.522127
0.510234
0.496583
0.481022
0.463469
0.443924
0.422481
0.399333
0.374764
0.349116
0.322788
0.296242
0.270022
0.244733
0.220952
0.199094
0.179452
0.162239
0.14799
0.492571
0.570649
0.62316
0.646838
0.65423
0.656548
0.662562
0.674377
0.689109
0.707278
0.728337
0.752644
0.782457
0.821622
0.87353
0.938393
1.01209
1.08782
1.15925
1.22281
1.27797
1.32628
1.37004
1.41151
1.45239
1.49378
1.53631
1.58033
1.62599
1.67334
1.7224
1.77305
1.82509
1.87821
1.93194
1.98569
2.03819
2.08791
2.1343
2.1766
2.21396
2.24555
2.27058
2.28835
2.29826
2.29991
2.29304
2.27761
2.25378
2.22191
2.18252
2.13627
2.08395
2.02642
1.96457
1.89931
1.83154
1.76211
1.69189
1.62309
1.55616
1.491
1.42787
1.36709
1.30894
1.25367
1.20144
1.15237
1.10656
1.06403
1.02478
0.988804
0.956045
0.92644
0.899902
0.876326
0.855588
0.837544
0.822032
0.808869
0.79786
0.788796
0.781462
0.77564
0.771116
0.767683
0.765148
0.76333
0.76207
0.761225
0.760672
0.760341
0.760191
0.760184
0.760292
0.760497
0.760786
0.761153
0.761599
0.762125
0.762731
0.763417
0.764178
0.765003
0.765875
0.76677
0.767655
0.76849
0.769283
0.770022
0.770682
0.77123
0.771626
0.771827
0.77179
0.77147
0.770823
0.769811
0.768397
0.766552
0.764254
0.761486
0.758246
0.754537
0.750376
0.745788
0.740809
0.735482
0.729859
0.723996
0.717951
0.711786
0.70556
0.69933
0.693148
0.687061
0.681107
0.675316
0.669712
0.664305
0.659099
0.654086
0.64925
0.644563
0.639992
0.635495
0.631025
0.626535
0.621977
0.617311
0.61251
0.607565
0.602483
0.597278
0.591957
0.586512
0.580894
0.575009
0.568716
0.561827
0.554102
0.545254
0.534947
0.522887
0.508843
0.49261
0.474049
0.453122
0.429926
0.404709
0.37786
0.349898
0.32145
0.293212
0.265879
0.240043
0.21612
0.194403
0.175061
0.158269
0.570728
0.683762
0.758576
0.792902
0.804201
0.80744
0.810373
0.813273
0.820826
0.834426
0.854377
0.881464
0.917532
0.964855
1.02459
1.09538
1.17327
1.25316
1.33062
1.40305
1.46973
1.5313
1.58899
1.64415
1.69789
1.75107
1.80428
1.85791
1.91224
1.96738
2.02337
2.08008
2.13728
2.19456
2.25143
2.3073
2.36022
2.41013
2.45652
2.49865
2.53569
2.56675
2.59099
2.6076
2.61586
2.61524
2.60538
2.58614
2.55764
2.52019
2.47433
2.42079
2.3604
2.29411
2.22291
2.14783
2.06987
1.98999
1.90952
1.83092
1.75381
1.67844
1.60522
1.53453
1.4667
1.402
1.34062
1.28267
1.22823
1.17732
1.12993
1.08603
1.04556
1.00844
0.9746
0.943947
0.916389
0.891819
0.870118
0.851154
0.834773
0.820805
0.809057
0.799326
0.791395
0.785041
0.780045
0.776192
0.773282
0.77113
0.769573
0.768473
0.767726
0.767249
0.766976
0.766859
0.766861
0.766957
0.76713
0.767367
0.767658
0.767992
0.76836
0.768746
0.769135
0.769504
0.769826
0.770094
0.770307
0.77045
0.770501
0.770432
0.770208
0.769792
0.769145
0.768225
0.766992
0.765408
0.763439
0.761054
0.758231
0.754957
0.751226
0.747045
0.742432
0.737416
0.732038
0.726348
0.720402
0.714267
0.708008
0.701696
0.695397
0.689176
0.683089
0.677188
0.67151
0.666085
0.660929
0.656046
0.651426
0.647048
0.642877
0.63887
0.634974
0.631129
0.627273
0.623345
0.61929
0.615066
0.610644
0.606013
0.601178
0.596148
0.590937
0.585549
0.57997
0.574154
0.568013
0.561414
0.554172
0.546048
0.536742
0.525906
0.513223
0.498449
0.481375
0.461878
0.439953
0.415756
0.389615
0.362024
0.33362
0.305134
0.277302
0.25078
0.226082
0.203589
0.183528
0.166046
0.629068
0.797046
0.906641
0.959167
0.979333
0.981813
0.974492
0.967821
0.967064
0.974602
0.991605
1.01914
1.05848
1.11056
1.17508
1.25
1.33176
1.41634
1.50025
1.58121
1.65817
1.73101
1.80021
1.86643
1.93038
1.9927
2.05391
2.1144
2.17446
2.23422
2.29373
2.35285
2.41136
2.46886
2.52487
2.57877
2.62944
2.67753
2.72274
2.76441
2.80172
2.83373
2.85945
2.87788
2.8881
2.88929
2.88086
2.86245
2.83398
2.79565
2.74793
2.69149
2.62718
2.55598
2.47893
2.39713
2.31166
2.22365
2.13599
2.04891
1.96273
1.87799
1.79526
1.71503
1.63773
1.56369
1.49317
1.42632
1.36323
1.30393
1.24841
1.1966
1.14844
1.10382
1.06264
1.0248
0.990197
0.958727
0.93029
0.904781
0.882086
0.86208
0.84462
0.829546
0.816679
0.805824
0.796776
0.789323
0.783254
0.778365
0.774465
0.771378
0.768939
0.767013
0.765488
0.764279
0.763318
0.762551
0.761936
0.761441
0.76104
0.760709
0.760431
0.760184
0.759952
0.759711
0.759441
0.759138
0.758792
0.758385
0.757894
0.757292
0.756547
0.755622
0.754478
0.753076
0.751376
0.749339
0.746929
0.744119
0.740884
0.737211
0.733098
0.728555
0.723602
0.718274
0.712617
0.70669
0.700556
0.694291
0.687968
0.681667
0.675461
0.66942
0.663604
0.658063
0.652833
0.647936
0.643378
0.639148
0.63522
0.631553
0.628089
0.624764
0.621501
0.618222
0.614846
0.611301
0.607523
0.603466
0.599104
0.594429
0.589451
0.584192
0.57868
0.572945
0.567003
0.560845
0.554428
0.547665
0.540416
0.532482
0.523598
0.513443
0.501652
0.48796
0.472129
0.453994
0.433499
0.410738
0.385975
0.359644
0.332333
0.304741
0.277598
0.251588
0.227289
0.205155
0.185469
0.168427
0.597227
0.883453
1.04541
1.12228
1.15025
1.15026
1.13921
1.12761
1.12182
1.12547
1.14065
1.16863
1.2102
1.26535
1.33295
1.41061
1.49505
1.58281
1.67086
1.75698
1.83987
1.91897
1.99422
2.0659
2.13442
2.20023
2.26374
2.32531
2.3852
2.44359
2.50056
2.55608
2.61003
2.66216
2.71212
2.75941
2.8047
2.84895
2.89199
2.93324
2.9719
3.00695
3.03723
3.0615
3.07848
3.08699
3.08602
3.07483
3.05302
3.02053
2.97763
2.92488
2.86305
2.79306
2.71593
2.63285
2.54476
2.45481
2.36336
2.27101
2.17849
2.0866
1.99607
1.90758
1.82171
1.73892
1.65958
1.58397
1.51226
1.44452
1.38078
1.321
1.26509
1.21294
1.16444
1.11944
1.07783
1.03948
1.00428
0.972117
0.942885
0.916481
0.892794
0.871705
0.853077
0.836762
0.822592
0.810389
0.799962
0.791118
0.783665
0.777415
0.772163
0.767737
0.763992
0.760808
0.758085
0.755738
0.753701
0.751918
0.750341
0.748934
0.747664
0.746502
0.745424
0.744404
0.74342
0.742456
0.741491
0.740503
0.739465
0.738347
0.737113
0.735725
0.734143
0.732325
0.730227
0.72781
0.725037
0.721877
0.718309
0.714321
0.709911
0.705094
0.699895
0.694356
0.68853
0.682482
0.676288
0.670027
0.663786
0.657648
0.651693
0.645993
0.640609
0.635586
0.630954
0.626721
0.622879
0.619397
0.616228
0.613305
0.610548
0.607866
0.60516
0.60233
0.599282
0.59593
0.592205
0.588058
0.583466
0.578428
0.572968
0.567122
0.560943
0.554486
0.5478
0.540914
0.533827
0.526495
0.518819
0.510637
0.501717
0.491767
0.480424
0.467413
0.452481
0.435446
0.416233
0.394903
0.37168
0.346944
0.321225
0.295163
0.269446
0.244741
0.221639
0.200618
0.181995
0.165992
0.66982
0.981954
1.17069
1.26068
1.297
1.30313
1.29521
1.28451
1.27855
1.2821
1.2979
1.32738
1.37095
1.42801
1.49693
1.57515
1.65958
1.74705
1.83478
1.92063
2.00316
2.08157
2.15556
2.22514
2.29051
2.35197
2.40986
2.4645
2.51621
2.5653
2.61202
2.65661
2.6992
2.73987
2.77859
2.81545
2.85298
2.89184
2.93194
2.97279
3.01367
3.05356
3.09122
3.12515
3.15371
3.17521
3.18809
3.19107
3.18324
3.16416
3.13378
3.09244
3.04077
2.97956
2.90974
2.83283
2.75104
2.6649
2.57523
2.4829
2.38884
2.29397
2.19919
2.10535
2.01321
1.92345
1.83662
1.75317
1.67343
1.59761
1.52583
1.45813
1.39447
1.33477
1.27891
1.22676
1.17817
1.13299
1.09108
1.05233
1.01661
0.983811
0.953829
0.926561
0.901899
0.879728
0.85992
0.842335
0.82682
0.813214
0.801346
0.791029
0.782048
0.774221
0.767388
0.761408
0.756158
0.75153
0.747433
0.743787
0.740527
0.737597
0.734947
0.732538
0.730334
0.728302
0.726412
0.724628
0.722918
0.721251
0.719593
0.717905
0.716147
0.714275
0.712243
0.710005
0.707512
0.704723
0.701598
0.698105
0.694224
0.689943
0.685265
0.68021
0.674808
0.669109
0.663174
0.657078
0.650903
0.644741
0.638683
0.63282
0.627233
0.621996
0.617164
0.612776
0.608847
0.605373
0.602322
0.599643
0.597261
0.595087
0.593012
0.590923
0.588698
0.58622
0.58338
0.580084
0.576257
0.571852
0.566847
0.561253
0.555102
0.548451
0.541372
0.533949
0.526262
0.518378
0.510336
0.502132
0.49371
0.484943
0.475633
0.465512
0.454261
0.441589
0.427244
0.411042
0.392905
0.372886
0.351181
0.328132
0.30421
0.279989
0.256092
0.233138
0.211688
0.192204
0.174999
0.160296
0.661235
1.04896
1.25934
1.36691
1.41813
1.43601
1.43683
1.43238
1.43095
1.438
1.45672
1.48858
1.53372
1.5912
1.65912
1.73488
1.81552
1.89812
1.98008
2.05938
2.13458
2.20479
2.26957
2.32878
2.3825
2.43097
2.47455
2.51369
2.54894
2.58092
2.61029
2.6377
2.66376
2.68894
2.71357
2.73954
2.76871
2.8014
2.83756
2.87698
2.91926
2.96371
3.00925
3.05436
3.09713
3.13539
3.16693
3.1897
3.20214
3.20323
3.19245
3.16988
3.13592
3.09108
3.0375
2.97589
2.90709
2.83191
2.75117
2.66576
2.57662
2.48471
2.39103
2.29655
2.20221
2.10888
2.01733
1.92825
1.84217
1.75953
1.68061
1.6056
1.53459
1.46758
1.40451
1.34528
1.28975
1.23779
1.18925
1.14398
1.10185
1.06274
1.02654
0.99314
0.962441
0.934345
0.90875
0.885547
0.86462
0.845839
0.829075
0.814121
0.800791
0.788918
0.778342
0.768919
0.760516
0.753011
0.746294
0.74027
0.734854
0.72997
0.725556
0.721556
0.71792
0.714606
0.711573
0.708765
0.706135
0.70364
0.701232
0.698863
0.696484
0.694042
0.691483
0.688753
0.6858
0.682576
0.679038
0.675155
0.670904
0.666277
0.661283
0.655944
0.650302
0.644413
0.638349
0.632194
0.626042
0.619991
0.614139
0.608582
0.603404
0.598673
0.594438
0.590727
0.587539
0.584848
0.582603
0.580726
0.579118
0.577662
0.576228
0.574678
0.572874
0.570683
0.567986
0.564682
0.560694
0.555974
0.550508
0.544309
0.537421
0.529916
0.521883
0.513427
0.504658
0.495674
0.48655
0.477324
0.467976
0.458418
0.448487
0.437951
0.426526
0.413934
0.39993
0.384341
0.367095
0.348247
0.327978
0.306595
0.284515
0.262242
0.240325
0.219314
0.199711
0.181937
0.166275
0.152928
0.638561
1.08129
1.31961
1.44598
1.51395
1.54689
1.5605
1.56642
1.57311
1.58632
1.60942
1.64388
1.68971
1.74577
1.8101
1.88012
1.95308
2.02625
2.09727
2.16423
2.22577
2.28099
2.32943
2.37095
2.40569
2.43405
2.45668
2.47444
2.48837
2.49961
2.50935
2.5187
2.52869
2.54016
2.55384
2.57174
2.59346
2.6189
2.64828
2.68208
2.72078
2.76463
2.81332
2.86579
2.92021
2.97416
3.02478
3.0691
3.10468
3.12978
3.14311
3.14451
3.13435
3.11348
3.08266
3.0425
2.99359
2.93656
2.87208
2.80089
2.72381
2.64175
2.55567
2.4666
2.37556
2.28357
2.19162
2.10057
2.01123
1.92425
1.84017
1.75939
1.68218
1.6087
1.53902
1.47313
1.41097
1.35244
1.29741
1.24576
1.19735
1.15204
1.10973
1.07031
1.03367
0.999722
0.968378
0.939549
0.913142
0.889061
0.867192
0.847325
0.829311
0.813007
0.79827
0.784966
0.772962
0.762132
0.752361
0.743538
0.735566
0.728355
0.721826
0.715908
0.710538
0.705662
0.701226
0.697166
0.693414
0.689909
0.686588
0.683389
0.68025
0.677107
0.673895
0.670552
0.667017
0.663235
0.65916
0.654757
0.650005
0.644899
0.639451
0.633693
0.627675
0.621465
0.615146
0.608814
0.602574
0.596534
0.590799
0.585468
0.580626
0.576335
0.572635
0.56954
0.567032
0.565064
0.563559
0.562416
0.561511
0.560704
0.559842
0.558771
0.557337
0.555396
0.552823
0.549512
0.545386
0.540399
0.534537
0.527819
0.520295
0.512045
0.503169
0.493788
0.48403
0.47402
0.463863
0.453629
0.443335
0.432928
0.422284
0.41121
0.399463
0.386789
0.372962
0.357829
0.341333
0.323532
0.304597
0.284805
0.264519
0.244173
0.224239
0.205189
0.187454
0.171393
0.157254
0.145205
0.671055
1.12266
1.36191
1.50173
1.58612
1.63559
1.66437
1.68326
1.70037
1.72135
1.74955
1.78644
1.83198
1.88502
1.94361
2.00534
2.06764
2.12801
2.18431
2.23481
2.27827
2.31396
2.34158
2.3613
2.37371
2.37978
2.38085
2.3785
2.37443
2.37025
2.36739
2.36695
2.36974
2.37627
2.38695
2.40054
2.41478
2.42953
2.44578
2.46523
2.4899
2.52168
2.56183
2.61048
2.66649
2.72761
2.79075
2.85193
2.90759
2.95567
2.99313
3.02004
3.03644
3.04243
3.03822
3.02403
3.00016
2.96693
2.92474
2.87409
2.81559
2.74996
2.67806
2.60082
2.51928
2.43448
2.34751
2.2594
2.17113
2.08359
1.99754
1.91364
1.83239
1.75416
1.67921
1.6077
1.53969
1.47518
1.41411
1.35642
1.30198
1.25071
1.20248
1.15721
1.11479
1.07514
1.03818
1.00384
0.972031
0.942695
0.915697
0.890842
0.868019
0.847112
0.828003
0.810571
0.794695
0.780253
0.767127
0.755203
0.744373
0.734538
0.725605
0.71749
0.710118
0.703419
0.697331
0.69179
0.686713
0.682013
0.677611
0.673426
0.66938
0.665392
0.661386
0.657285
0.653018
0.64852
0.643739
0.638636
0.633188
0.627394
0.621272
0.614863
0.60823
0.601453
0.594631
0.587875
0.581303
0.575036
0.569187
0.563861
0.55914
0.555084
0.551724
0.549056
0.547047
0.545627
0.544698
0.544135
0.543792
0.543507
0.543111
0.542434
0.541312
0.539595
0.537151
0.533874
0.529688
0.524547
0.518439
0.511384
0.503433
0.494666
0.48519
0.47513
0.464624
0.453814
0.442824
0.431749
0.420636
0.409468
0.398155
0.386546
0.374444
0.361627
0.3479
0.333134
0.317294
0.300443
0.282742
0.264437
0.245841
0.227323
0.209277
0.192095
0.176135
0.161693
0.14897
0.138102
0.659225
1.1218
1.38078
1.53595
1.63666
1.70312
1.74819
1.78149
1.8104
1.84015
1.874
1.91338
1.95828
2.00761
2.05958
2.11195
2.16237
2.2086
2.24872
2.28125
2.30528
2.32046
2.32708
2.32607
2.31895
2.30775
2.29482
2.28253
2.27296
2.26761
2.26727
2.2719
2.28085
2.29312
2.30704
2.31701
2.32115
2.31992
2.31528
2.31026
2.30859
2.31413
2.33024
2.35902
2.40061
2.45357
2.51559
2.58229
2.6478
2.71003
2.7666
2.81586
2.8568
2.88875
2.91132
2.92429
2.92749
2.92089
2.90452
2.87855
2.84331
2.79925
2.747
2.68732
2.6211
2.54933
2.47305
2.39335
2.3113
2.22792
2.14416
2.06087
1.9788
1.89854
1.82059
1.7453
1.67291
1.60359
1.53741
1.47439
1.41451
1.35772
1.30396
1.25315
1.20523
1.16012
1.11776
1.0781
1.04108
1.00666
0.974602
0.944809
0.917196
0.891671
0.868137
0.846491
0.826626
0.808428
0.791783
0.776578
0.762701
0.750043
0.738505
0.727992
0.718416
0.709697
0.70176
0.694538
0.68796
0.681917
0.6763
0.671007
0.665937
0.660992
0.656074
0.65109
0.645951
0.640579
0.634911
0.6289
0.622523
0.615778
0.608691
0.601314
0.593724
0.586019
0.578318
0.570751
0.563455
0.556566
0.550212
0.544502
0.539526
0.535338
0.531961
0.529382
0.527548
0.526371
0.525734
0.52549
0.525475
0.525509
0.525409
0.524994
0.524093
0.52255
0.520232
0.517035
0.512882
0.507728
0.501561
0.494398
0.486287
0.477305
0.467551
0.457149
0.446237
0.43496
0.423452
0.411825
0.400144
0.388422
0.376603
0.364576
0.352193
0.339268
0.325642
0.311222
0.295991
0.28002
0.263461
0.246528
0.229491
0.212655
0.196343
0.180874
0.166535
0.15356
0.142103
0.132267
0.658736
1.11854
1.38493
1.55228
1.66829
1.75169
1.81363
1.86234
1.9042
1.9439
1.98443
2.0272
2.07229
2.11875
2.16496
2.2089
2.24845
2.28164
2.30683
2.32294
2.32956
2.32705
2.31668
2.30051
2.28137
2.26249
2.24712
2.23798
2.23689
2.24436
2.25959
2.28053
2.30425
2.3274
2.34339
2.34803
2.34029
2.32099
2.29247
2.25849
2.22397
2.19436
2.17498
2.17032
2.18249
2.21102
2.25415
2.30864
2.37051
2.43595
2.50159
2.56472
2.6233
2.67584
2.7212
2.75852
2.78712
2.80646
2.81618
2.81605
2.80603
2.78626
2.75707
2.71895
2.67256
2.61869
2.55824
2.49219
2.42158
2.34743
2.27078
2.1926
2.11379
2.03514
1.95735
1.88099
1.80652
1.73429
1.66456
1.59749
1.53319
1.47173
1.41311
1.35732
1.30436
1.2542
1.2068
1.16214
1.12019
1.08087
1.04395
1.00938
0.977104
0.947058
0.919168
0.893347
0.869502
0.847532
0.827331
0.808786
0.791787
0.776224
0.761988
0.748979
0.737098
0.726258
0.716373
0.707366
0.699173
0.691704
0.684814
0.678367
0.672235
0.666291
0.660412
0.654478
0.648379
0.642015
0.635306
0.628193
0.620645
0.612662
0.604276
0.59555
0.58658
0.577486
0.56841
0.559511
0.550949
0.542884
0.535464
0.528812
0.523026
0.518164
0.514245
0.511247
0.509106
0.507719
0.506952
0.506642
0.506608
0.506657
0.506595
0.506232
0.505391
0.503916
0.501673
0.498559
0.494498
0.489448
0.483392
0.476345
0.468346
0.459461
0.449778
0.439409
0.428481
0.417129
0.405489
0.393672
0.38176
0.36978
0.35771
0.345475
0.33297
0.320051
0.306601
0.29256
0.277934
0.262802
0.247303
0.231629
0.216006
0.200685
0.185927
0.171986
0.159081
0.14739
0.137027
0.128063
0.650286
1.10389
1.37556
1.55389
1.68469
1.7851
1.86464
1.93005
1.9866
2.03825
2.08764
2.1361
2.1838
2.22998
2.27321
2.31171
2.34361
2.36719
2.38117
2.38489
2.37858
2.36345
2.3418
2.3169
2.2927
2.2733
2.2623
2.26222
2.27403
2.29695
2.32856
2.36492
2.40105
2.43082
2.44626
2.44585
2.42903
2.39613
2.34888
2.29078
2.22701
2.16387
2.10786
2.06472
2.03866
2.03186
2.04443
2.07461
2.11929
2.17468
2.237
2.30279
2.36913
2.43365
2.49442
2.54988
2.59874
2.63994
2.67265
2.69626
2.71035
2.71472
2.70935
2.69442
2.67028
2.63743
2.59653
2.54832
2.49366
2.43347
2.3687
2.30032
2.22928
2.15646
2.08272
2.00878
1.9353
1.86283
1.79182
1.72263
1.65553
1.59071
1.52834
1.4685
1.41127
1.3567
1.30481
1.25564
1.20922
1.16526
1.12374
1.08464
1.04793
1.01356
0.981475
0.951621
0.923914
0.898268
0.874584
0.852759
0.832685
0.81425
0.797346
0.781866
0.767708
0.754773
0.742969
0.732206
0.722397
0.713521
0.705399
0.697857
0.690726
0.683843
0.677049
0.67019
0.663123
0.655719
0.647874
0.639509
0.630582
0.621089
0.611065
0.600588
0.589772
0.578764
0.567737
0.556881
0.546393
0.536463
0.527269
0.518959
0.511647
0.505402
0.50025
0.496166
0.493081
0.490881
0.489421
0.488524
0.487999
0.487641
0.487247
0.48662
0.485582
0.483974
0.481663
0.478549
0.474558
0.469646
0.463798
0.457021
0.449346
0.440822
0.431521
0.421534
0.410967
0.399937
0.388565
0.376954
0.365186
0.353299
0.34129
0.329116
0.316711
0.303972
0.290825
0.277241
0.26325
0.248937
0.234435
0.21991
0.205556
0.191578
0.178185
0.165572
0.153902
0.143301
0.133848
0.125592
0.612245
1.08141
1.35529
1.54447
1.69077
1.80955
1.90881
1.99384
2.06863
2.13621
2.19875
2.25736
2.31205
2.3623
2.40696
2.44451
2.47335
2.49206
2.49967
2.49598
2.48173
2.45884
2.43042
2.40052
2.37374
2.35444
2.34609
2.3506
2.36804
2.3966
2.43289
2.47222
2.50934
2.53683
2.55055
2.54827
2.52825
2.48949
2.4324
2.35941
2.27517
2.18607
2.09929
2.02175
1.95934
1.91627
1.89469
1.89458
1.91413
1.95029
1.99945
2.05792
2.12227
2.18945
2.25688
2.32237
2.38409
2.44053
2.49049
2.533
2.56734
2.59299
2.60963
2.61711
2.61545
2.6048
2.58548
2.55792
2.52267
2.48039
2.43183
2.3778
2.31914
2.25673
2.19142
2.12404
2.05536
1.98609
1.91685
1.84818
1.78055
1.71433
1.64983
1.58729
1.52692
1.46887
1.41327
1.36024
1.30971
1.26152
1.21572
1.17235
1.13142
1.09292
1.05682
1.02308
0.991642
0.96243
0.935364
0.91035
0.887287
0.866068
0.846587
0.828735
0.812406
0.797495
0.783901
0.771522
0.760259
0.750016
0.740759
0.732241
0.724237
0.716534
0.708927
0.701218
0.693223
0.684775
0.675737
0.666005
0.65552
0.644268
0.632287
0.619663
0.60653
0.593062
0.579467
0.565973
0.55282
0.540241
0.528453
0.517641
0.50795
0.499474
0.492252
0.486269
0.481458
0.477703
0.474851
0.472719
0.471104
0.469794
0.468579
0.467257
0.465644
0.463583
0.460943
0.457623
0.453554
0.448694
0.443025
0.436551
0.429292
0.421284
0.412576
0.403233
0.393335
0.38297
0.37223
0.361201
0.34995
0.338516
0.326904
0.315094
0.303049
0.290705
0.278026
0.265013
0.251716
0.238226
0.224672
0.211203
0.197985
0.185188
0.172975
0.161492
0.150857