/*--------------------------------*- C++ -*----------------------------------*\
  =========                 |
  \\      /  F ield         | OpenFOAM: The Open Source CFD Toolbox
   \\    /   O peration     | Website:  https://openfoam.org
    \\  /    A nd           | Version:  9
     \\/     M anipulation  |
\*---------------------------------------------------------------------------*/
FoamFile
{
    format      ascii;
    class       volScalarField;
    location    "0.11";
    object      nut;
}
// * * * * * * * * * * * * * * * * * * * * * * * * * * * * * * * * * * * * * //

dimensions      [0 2 -1 0 0 0 0];

internalField   nonuniform List<scalar> 
12225
(
4.0425e-05
3.81855e-05
3.60602e-05
3.41975e-05
3.27165e-05
3.16632e-05
3.10336e-05
3.07915e-05
3.08836e-05
3.12497e-05
3.18311e-05
3.25741e-05
3.34329e-05
3.43703e-05
3.53578e-05
3.63739e-05
3.74137e-05
3.89666e-05
0.000281389
0.000208645
0.000175491
0.000156764
0.000145725
0.00013928
0.000135502
0.000133231
0.000131786
0.000130783
0.000130012
0.000129361
0.000128778
0.000128237
0.000127734
0.000127262
0.000126877
0.000126369
0.000558164
0.000422103
0.000351518
0.000306002
0.000273324
0.000248536
0.000229036
0.000213322
0.000200473
0.000189874
0.000181078
0.000173739
0.00016758
0.000162379
0.000157953
0.000154144
0.000150855
0.000147865
0.000741259
0.000627576
0.000546168
0.000486998
0.000441526
0.000405084
0.000374911
0.000349285
0.000327127
0.000307743
0.000290655
0.000275516
0.000262047
0.000250015
0.000239217
0.000229458
0.000220579
0.0002124
0.000817383
0.000759947
0.00070175
0.000649998
0.000605351
0.000566937
0.000533621
0.00050437
0.00047837
0.000455015
0.000433857
0.000414555
0.000396843
0.000380497
0.000365325
0.000351138
0.000337772
0.00032515
0.000842187
0.000819962
0.000790415
0.000758278
0.000726331
0.000695959
0.00066769
0.000641581
0.000617492
0.000595217
0.000574546
0.000555282
0.000537246
0.000520272
0.000504205
0.00048889
0.00047418
0.000460104
0.000849283
0.000841884
0.000829894
0.00081442
0.000796772
0.000778074
0.000759133
0.00074045
0.000722304
0.000704833
0.000688085
0.000672055
0.000656706
0.000641977
0.000627795
0.000614071
0.000600714
0.000587834
0.000851126
0.000848765
0.000844516
0.000838292
0.000830315
0.000820962
0.000810637
0.000799696
0.00078842
0.000777016
0.000765627
0.000754349
0.000743233
0.000732305
0.000721563
0.000710987
0.000700552
0.000690406
0.000851562
0.000850669
0.000849174
0.00084689
0.00084374
0.000839743
0.00083499
0.000829602
0.000823708
0.000817429
0.00081087
0.000804116
0.000797232
0.000790264
0.000783243
0.000776185
0.000769105
0.000762146
0.000851654
0.000851134
0.000850467
0.000849558
0.000848333
0.000846744
0.000844776
0.000842436
0.000839752
0.000836759
0.000833497
0.000830008
0.000826327
0.000822486
0.000818512
0.000814427
0.000810254
0.000806103
0.00085167
0.000851232
0.000850777
0.000850273
0.000849686
0.000848985
0.000848146
0.000847154
0.000846002
0.00084469
0.000843224
0.000841613
0.000839867
0.000838001
0.000836027
0.000833959
0.000831816
0.000829667
0.000851671
0.000851246
0.000850835
0.000850426
0.000850006
0.00084956
0.000849076
0.000848542
0.000847949
0.00084729
0.000846562
0.000845766
0.000844902
0.000843974
0.000842988
0.000841952
0.000840878
0.000839811
0.00085167
0.000851246
0.000850844
0.000850458
0.000850084
0.000849716
0.00084935
0.000848978
0.000848596
0.0008482
0.000847785
0.000847351
0.000846897
0.000846423
0.000845933
0.000845431
0.000844927
0.000844447
0.000851668
0.000851243
0.000850841
0.000850459
0.000850095
0.000849746
0.000849412
0.000849089
0.000848776
0.00084847
0.00084817
0.000847876
0.000847587
0.000847304
0.000847031
0.00084677
0.000846529
0.000846325
0.000851667
0.000851241
0.000850837
0.000850454
0.00085009
0.000849745
0.000849417
0.000849105
0.000848807
0.000848524
0.000848255
0.000848
0.00084776
0.000847537
0.000847332
0.00084715
0.000846995
0.000846881
0.000851666
0.000851238
0.000850833
0.000850449
0.000850085
0.00084974
0.000849412
0.000849102
0.000848808
0.000848529
0.000848267
0.000848022
0.000847793
0.000847583
0.000847393
0.000847226
0.000847086
0.000846986
0.000851665
0.000851236
0.00085083
0.000850445
0.00085008
0.000849735
0.000849408
0.000849098
0.000848805
0.000848528
0.000848268
0.000848024
0.000847798
0.000847589
0.000847399
0.00084723
0.000847085
0.000846976
0.000851664
0.000851235
0.000850828
0.000850442
0.000850077
0.000849732
0.000849405
0.000849095
0.000848802
0.000848526
0.000848266
0.000848022
0.000847794
0.000847582
0.000847387
0.00084721
0.000847053
0.000846928
0.000851663
0.000851234
0.000850827
0.000850441
0.000850076
0.000849731
0.000849404
0.000849094
0.000848801
0.000848524
0.000848262
0.000848015
0.000847783
0.000847565
0.000847361
0.000847172
0.000847
0.000846855
0.000851663
0.000851234
0.000850827
0.000850442
0.000850078
0.000849734
0.000849407
0.000849097
0.000848803
0.000848525
0.00084826
0.000848009
0.000847771
0.000847545
0.000847331
0.000847129
0.000846941
0.000846777
0.000851664
0.000851235
0.000850829
0.000850446
0.000850082
0.000849737
0.00084941
0.000849097
0.000848799
0.000848513
0.000848239
0.000847975
0.00084772
0.000847473
0.000847234
0.000847003
0.00084678
0.000846578
0.000851665
0.000851236
0.000850831
0.000850444
0.000850074
0.000849714
0.000849362
0.000849014
0.000848666
0.000848316
0.000847961
0.000847599
0.000847229
0.00084685
0.000846463
0.000846066
0.000845664
0.000845268
0.000851664
0.000851227
0.000850796
0.000850351
0.000849877
0.000849356
0.000848778
0.000848133
0.000847416
0.000846626
0.000845765
0.000844836
0.000843844
0.000842795
0.000841695
0.00084055
0.00083937
0.000838177
0.000851634
0.000851074
0.000850348
0.000849374
0.0008481
0.000846502
0.000844581
0.00084236
0.000839871
0.000837155
0.000834252
0.0008312
0.000828034
0.000824787
0.000821483
0.000818148
0.000814801
0.00081149
0.000851289
0.000849608
0.000846754
0.000842642
0.000837368
0.000831134
0.00082418
0.000816734
0.000808988
0.000801095
0.000793172
0.000785306
0.000777558
0.000769968
0.000762564
0.000755361
0.000748372
0.00074165
0.00084834
0.000839514
0.000826357
0.000810335
0.000792798
0.000774781
0.000756977
0.000739784
0.000723398
0.000707894
0.000693282
0.00067953
0.00066659
0.000654403
0.000642912
0.000632059
0.000621794
0.000612129
0.000828709
0.000789312
0.000746789
0.000706645
0.000670526
0.000638634
0.000610611
0.000585909
0.000563991
0.000544404
0.000526777
0.00051081
0.000496258
0.000482926
0.000470653
0.000459307
0.000448781
0.00043903
0.000731516
0.00062848
0.000555577
0.000502009
0.000461174
0.000429124
0.000403337
0.0003821
0.000364264
0.00034905
0.000335909
0.000324442
0.000314349
0.000305398
0.00029741
0.00029024
0.000283769
0.000277915
0.000439558
0.000337751
0.000286979
0.000255965
0.000235572
0.000221861
0.000212467
0.000205891
0.000201169
0.00019769
0.000195056
0.000193006
0.000191363
0.000190009
0.000188864
0.000187873
0.000186997
0.000186192
7.15981e-05
6.89376e-05
6.63688e-05
6.39389e-05
6.17363e-05
5.98115e-05
5.81826e-05
5.68462e-05
5.57851e-05
5.49748e-05
5.43879e-05
5.39966e-05
5.37743e-05
5.36965e-05
5.37408e-05
5.38878e-05
5.41206e-05
5.44231e-05
3.96984e-05
5.24844e-05
5.69826e-05
5.93362e-05
6.0461e-05
6.08389e-05
6.07205e-05
6.02331e-05
5.9449e-05
5.86708e-05
5.79129e-05
5.70777e-05
5.60886e-05
5.48925e-05
5.34726e-05
5.19016e-05
5.04721e-05
5.05127e-05
5.19531e-05
5.45495e-05
5.78121e-05
6.12649e-05
6.46328e-05
6.78265e-05
7.08445e-05
7.37036e-05
7.64168e-05
7.89923e-05
8.14365e-05
8.37543e-05
8.59496e-05
8.80257e-05
8.9986e-05
9.18338e-05
9.3573e-05
9.52065e-05
9.67313e-05
9.84083e-05
9.99632e-05
0.000101306
0.000102438
0.000103358
0.000104061
0.000104544
0.000104801
0.00010483
0.000104629
0.0001042
0.000103546
0.000102672
0.000101586
0.0001003
9.88256e-05
9.71776e-05
9.53742e-05
9.34427e-05
9.14489e-05
8.95678e-05
8.82127e-05
8.71123e-05
8.60893e-05
8.51174e-05
8.4199e-05
8.33413e-05
8.25509e-05
8.18326e-05
8.11884e-05
8.06179e-05
8.01184e-05
7.96854e-05
7.93128e-05
7.89936e-05
7.87202e-05
7.84847e-05
7.82798e-05
7.80984e-05
7.79344e-05
7.77823e-05
7.76375e-05
7.74962e-05
7.73551e-05
7.72114e-05
7.70626e-05
7.69061e-05
7.67395e-05
7.65609e-05
7.63718e-05
7.6181e-05
7.60146e-05
7.58612e-05
7.57155e-05
7.55745e-05
7.54361e-05
7.52999e-05
7.51659e-05
7.5035e-05
7.49086e-05
7.47883e-05
7.46763e-05
7.45747e-05
7.44858e-05
7.44119e-05
7.43554e-05
7.43186e-05
7.43038e-05
7.43131e-05
7.43488e-05
7.4413e-05
7.45258e-05
7.46835e-05
7.48783e-05
7.51046e-05
7.53576e-05
7.56327e-05
7.59256e-05
7.62323e-05
7.65489e-05
7.6872e-05
7.71984e-05
7.75256e-05
7.78517e-05
7.81753e-05
7.84955e-05
7.88119e-05
7.91247e-05
7.94342e-05
7.9741e-05
8.00461e-05
8.03504e-05
8.06549e-05
8.09608e-05
8.1269e-05
8.15805e-05
8.18963e-05
8.22172e-05
8.2544e-05
8.28772e-05
8.32174e-05
8.3565e-05
8.39204e-05
8.42838e-05
8.46552e-05
8.50346e-05
8.54219e-05
8.58168e-05
8.62189e-05
8.66274e-05
8.70416e-05
8.74602e-05
8.78819e-05
8.83065e-05
8.87371e-05
8.91833e-05
8.96567e-05
9.01386e-05
9.04906e-05
9.0626e-05
9.05508e-05
9.02737e-05
8.9809e-05
8.91763e-05
8.84004e-05
8.75094e-05
8.65321e-05
8.54938e-05
8.44122e-05
8.32954e-05
8.2142e-05
8.094e-05
7.96679e-05
7.82927e-05
7.67811e-05
7.51153e-05
7.31515e-05
7.08932e-05
6.86675e-05
0.000230033
0.000176879
0.000138956
0.000112827
8.59342e-05
0.000144474
0.000180537
0.000203283
0.000217014
0.000224388
0.000227229
0.000226913
0.000224744
0.000220953
0.000212375
0.000201027
0.000188612
0.000176756
0.000167378
0.000163226
0.000170276
0.000191274
0.000224223
0.000263407
0.000302277
0.000336475
0.000364674
0.000387743
0.000407533
0.000425962
0.000444559
0.00046435
0.000485923
0.000509528
0.000535154
0.00056258
0.0005914
0.000621046
0.000650797
0.000679799
0.000707076
0.000730702
0.000752917
0.00077426
0.00079456
0.000813564
0.000831013
0.000846655
0.00086025
0.000871577
0.000880433
0.000886639
0.00089004
0.000890505
0.000887932
0.000882243
0.000873389
0.00086136
0.000846191
0.000827992
0.000806991
0.000783584
0.000758341
0.000732614
0.000706532
0.000680192
0.000653858
0.00062782
0.000602352
0.000577699
0.000554065
0.000531611
0.00051045
0.000490655
0.000472257
0.000455253
0.000439611
0.000425278
0.000412187
0.000400259
0.000389412
0.000379562
0.000370624
0.000362519
0.000355167
0.000348494
0.000342425
0.000336886
0.000331798
0.000327071
0.000322609
0.000318229
0.0003141
0.000310642
0.000307914
0.000305789
0.000304177
0.000303018
0.00030227
0.000301901
0.00030189
0.000302217
0.000302863
0.000303811
0.000305038
0.00030652
0.000308229
0.000310129
0.000312183
0.000314349
0.000316574
0.000318823
0.000320941
0.000322888
0.000324667
0.000326255
0.000327617
0.000328714
0.00032951
0.000329972
0.000330074
0.000329799
0.000329136
0.000328085
0.000326651
0.000324847
0.000322689
0.000320201
0.000317407
0.000314336
0.000311017
0.000307479
0.000303751
0.000299862
0.00029584
0.00029171
0.000287495
0.000283219
0.0002789
0.000274556
0.000270202
0.000265851
0.00026151
0.000257189
0.00025289
0.000248617
0.000244369
0.000240142
0.000235929
0.000231721
0.000227502
0.000223251
0.000218941
0.000214537
0.000209996
0.000205275
0.000200321
0.00019504
0.000189151
0.000182079
0.000174641
0.000167679
0.000161683
0.000156978
0.00015345
0.000150928
0.000149208
0.000148049
0.000147182
0.000146324
0.000145195
0.000143546
0.000141183
0.000138041
0.000134203
0.000129871
0.000125588
0.000121979
0.000119918
0.00012119
0.00012767
0.000132557
0.000138087
0.000150536
0.000110379
0.000181529
0.0002309
0.0002651
0.000287992
0.000302568
0.000311322
0.000316546
0.000320425
0.000319904
0.000314723
0.000305072
0.000292101
0.000278901
0.000274623
0.000285251
0.000315117
0.000363188
0.000423064
0.000486621
0.000547416
0.000602081
0.00065002
0.000692376
0.000730972
0.000767543
0.000803359
0.000839155
0.000875223
0.000911567
0.000948019
0.000984329
0.00102022
0.00105541
0.00108965
0.00112268
0.0011543
0.00118425
0.00121358
0.00124232
0.00127024
0.00129708
0.00132253
0.0013463
0.00136807
0.00138756
0.00140448
0.00141858
0.00142963
0.0014374
0.00144172
0.00144243
0.00143939
0.00143251
0.00142171
0.00140696
0.00138826
0.00136565
0.00133924
0.00130965
0.00127762
0.0012433
0.00120695
0.00116895
0.0011297
0.00108967
0.00104936
0.00100925
0.000969829
0.000931558
0.000894833
0.000859986
0.000827272
0.000796865
0.000768858
0.000743271
0.00072006
0.000699135
0.000680365
0.000663596
0.000648659
0.000635381
0.000623588
0.000613112
0.000603794
0.000595484
0.000588046
0.000581355
0.000575334
0.000569912
0.00056531
0.000561595
0.000558703
0.000556584
0.000555204
0.000554537
0.000554566
0.000555273
0.000556643
0.000558652
0.000561275
0.000564472
0.000568196
0.000572383
0.000576954
0.000581818
0.000586868
0.000591939
0.000596754
0.000601339
0.000605668
0.000609684
0.000613316
0.000616493
0.000619145
0.000621213
0.000622649
0.000623419
0.000623505
0.0006229
0.000621614
0.000619665
0.000617084
0.000613911
0.000610192
0.000605978
0.000601324
0.000596287
0.000590924
0.000585294
0.000579451
0.00057345
0.00056734
0.000561168
0.000554976
0.0005488
0.00054267
0.000536612
0.000530643
0.000524775
0.000519013
0.000513355
0.000507791
0.000502305
0.000496871
0.000491457
0.000486018
0.000480498
0.000474828
0.000468922
0.000462683
0.000456002
0.000448765
0.000440833
0.000432004
0.000422031
0.000410856
0.000398455
0.000384604
0.000368961
0.000352441
0.000335961
0.00031986
0.00030421
0.000289058
0.000274446
0.000260414
0.000246999
0.000234221
0.000222098
0.000210658
0.000199903
0.000189926
0.000180853
0.000172928
0.000166702
0.000162256
0.000159328
0.000157989
0.000159396
0.000131028
0.000220537
0.000288069
0.000333742
0.000362669
0.000379597
0.000388822
0.000394305
0.000395719
0.000393481
0.000388983
0.000383438
0.00037951
0.000382041
0.000397701
0.000431162
0.00048325
0.000550001
0.000624356
0.000699223
0.000769516
0.000832674
0.00088823
0.00093704
0.000980519
0.00102009
0.0010569
0.00109177
0.00112523
0.00115764
0.00118923
0.00122018
0.00125062
0.00128063
0.00131023
0.00133936
0.00136788
0.00139624
0.00142479
0.00145342
0.00148193
0.00151006
0.00153754
0.00156408
0.0015894
0.00161322
0.00163526
0.00165527
0.00167301
0.00168825
0.00170082
0.00171054
0.00171728
0.00172091
0.0017213
0.00171834
0.00171192
0.0017019
0.00168812
0.00167051
0.00164947
0.00162518
0.00159761
0.00156678
0.00153277
0.00149573
0.00145589
0.00141364
0.00136942
0.00132381
0.00127746
0.00123107
0.00118535
0.00114097
0.00109852
0.00105849
0.00102123
0.000986985
0.000955843
0.000927803
0.000902769
0.000880579
0.000861029
0.000843889
0.000828921
0.000815891
0.000804581
0.000794793
0.000786356
0.000779121
0.000773024
0.000768204
0.000764573
0.000762063
0.000760623
0.000760213
0.000760801
0.000762356
0.000764846
0.000768231
0.000772459
0.000777468
0.000783177
0.000789488
0.000796282
0.000803416
0.000810724
0.000818008
0.000825027
0.000831767
0.000838162
0.000844122
0.000849545
0.000854334
0.000858397
0.000861659
0.00086406
0.000865557
0.000866127
0.000865766
0.000864488
0.000862323
0.000859316
0.000855522
0.000851009
0.000845851
0.00084013
0.000833929
0.000827337
0.000820438
0.000813319
0.000806061
0.000798742
0.000791433
0.000784198
0.000777092
0.000770161
0.00076344
0.000756951
0.000750707
0.000744707
0.000738935
0.000733366
0.000727957
0.000722656
0.000717394
0.000712087
0.000706639
0.000700939
0.000694862
0.000688274
0.000681037
0.000673013
0.000664059
0.000654027
0.000642775
0.000630185
0.000616152
0.000600553
0.000583255
0.000564182
0.000543163
0.000520871
0.000497882
0.000474303
0.000450261
0.000425929
0.000401547
0.000377411
0.000353851
0.000331202
0.000309746
0.00028975
0.000271497
0.000255292
0.000241452
0.000229995
0.000220787
0.000213573
0.000208295
0.000154733
0.000270934
0.000357055
0.000412395
0.000445138
0.000462065
0.000469417
0.000471407
0.000470208
0.000468816
0.000469131
0.000473054
0.000483458
0.000504282
0.000539419
0.000590569
0.000656011
0.000730862
0.000808815
0.00088416
0.000952998
0.0010135
0.00106554
0.00111012
0.00114868
0.0011827
0.00121345
0.00124192
0.00126886
0.00129481
0.00132017
0.00134525
0.00137022
0.00139518
0.00142015
0.00144506
0.00146982
0.00149511
0.00152104
0.00154752
0.00157436
0.00160137
0.00162831
0.00165494
0.00168101
0.00170623
0.00173034
0.0017531
0.00177425
0.0017936
0.00181097
0.00182623
0.00183929
0.00185008
0.00185857
0.00186471
0.00186847
0.00186976
0.00186846
0.00186418
0.00185732
0.00184798
0.00183598
0.00182107
0.00180295
0.00178134
0.00175596
0.00172665
0.00169332
0.00165605
0.0016151
0.00157093
0.00152418
0.00147565
0.00142626
0.00137695
0.00132865
0.00128219
0.00123827
0.00119741
0.00115994
0.00112604
0.00109571
0.00106888
0.00104537
0.00102493
0.00100731
0.000992253
0.000979502
0.000968833
0.00096001
0.000953088
0.000947927
0.000944403
0.000942411
0.000941863
0.000942682
0.000944798
0.000948136
0.000952618
0.000958154
0.000964638
0.000971947
0.000979939
0.000988455
0.000997322
0.00100635
0.00101519
0.00102376
0.00103201
0.00103981
0.00104705
0.00105361
0.00105936
0.0010642
0.00106805
0.00107084
0.00107252
0.00107307
0.0010725
0.00107082
0.00106808
0.00106434
0.00105967
0.00105415
0.00104789
0.00104099
0.00103357
0.00102573
0.0010176
0.00100929
0.00100092
0.000992571
0.000984356
0.000976353
0.000968634
0.000961254
0.00095425
0.000947642
0.000941431
0.000935597
0.000930098
0.000924874
0.000919844
0.000914906
0.000909944
0.000904822
0.000899395
0.000893506
0.000886995
0.000879701
0.000871475
0.000862177
0.000851675
0.000839851
0.000826598
0.000811824
0.000795443
0.000777368
0.000757508
0.000735767
0.000712042
0.000686198
0.000658682
0.000629887
0.000599984
0.00056918
0.000537757
0.000506077
0.000474579
0.000443757
0.000414111
0.000386143
0.000360337
0.000337127
0.000316842
0.000299596
0.000285373
0.000273986
0.000265235
0.000179429
0.00031941
0.00042329
0.000490839
0.00053105
0.000552117
0.000560771
0.000561531
0.000560634
0.000562129
0.000568576
0.000582082
0.000604928
0.000639397
0.000686839
0.000746567
0.000815497
0.000888834
0.000961437
0.0010291
0.00108923
0.00114094
0.00118463
0.00122148
0.00125295
0.00128045
0.00130516
0.00132799
0.00134966
0.00137066
0.00139136
0.00141197
0.00143264
0.00145341
0.00147427
0.00149514
0.00151622
0.00153818
0.00156113
0.00158504
0.0016098
0.00163527
0.00166127
0.00168756
0.00171388
0.00173995
0.00176545
0.00179006
0.00181348
0.00183544
0.00185573
0.00187419
0.00189072
0.00190532
0.00191803
0.00192893
0.00193811
0.00194569
0.00195159
0.00195564
0.00195858
0.00196049
0.00196125
0.00196061
0.00195823
0.00195366
0.00194639
0.00193585
0.00192146
0.00190269
0.00187914
0.00185054
0.00181687
0.00177837
0.00173555
0.00168917
0.00164023
0.00158983
0.00153916
0.00148933
0.00144134
0.00139602
0.00135397
0.00131559
0.00128108
0.00125048
0.00122368
0.00120052
0.00118074
0.00116411
0.00115035
0.00113929
0.00113082
0.00112471
0.00112079
0.00111889
0.00111886
0.00112056
0.00112387
0.00112862
0.00113467
0.00114187
0.00115003
0.00115896
0.00116845
0.00117827
0.00118818
0.00119787
0.00120728
0.00121629
0.00122476
0.00123255
0.00123953
0.00124556
0.00125053
0.00125435
0.00125695
0.0012583
0.00125837
0.00125718
0.00125475
0.00125115
0.00124645
0.00124074
0.00123413
0.00122674
0.0012187
0.00121015
0.00120123
0.00119209
0.00118286
0.00117369
0.0011647
0.00115601
0.00114771
0.00113989
0.00113259
0.00112584
0.00111966
0.00111401
0.00110884
0.00110405
0.00109954
0.00109516
0.00109075
0.00108612
0.00108108
0.00107543
0.00106895
0.00106146
0.00105278
0.00104275
0.00103125
0.00101816
0.00100342
0.000986958
0.000968748
0.000948753
0.000926936
0.000903247
0.000877622
0.000849978
0.000820199
0.000788274
0.00075466
0.000719604
0.00068338
0.000646317
0.000608822
0.000571385
0.000534566
0.00049896
0.000465176
0.000433805
0.000405382
0.000380327
0.000358896
0.000341217
0.000327229
0.000316817
0.000196838
0.000345906
0.000478709
0.000566066
0.000618828
0.000647044
0.000658316
0.00066149
0.000663426
0.000668867
0.000680837
0.000701349
0.000731827
0.000772983
0.000824343
0.000883894
0.000948253
0.00101339
0.00107555
0.001132
0.00118133
0.00122332
0.00125863
0.00128838
0.00131378
0.00133598
0.00135591
0.00137428
0.00139165
0.00140841
0.00142483
0.00144109
0.0014573
0.00147351
0.00148974
0.00150596
0.00152288
0.00154109
0.00156081
0.00158209
0.00160492
0.00162923
0.00165487
0.00168163
0.00170924
0.00173733
0.00176551
0.00179333
0.00182033
0.00184609
0.00187023
0.00189247
0.00191262
0.0019306
0.00194646
0.00196031
0.00197237
0.00198287
0.00199162
0.00199959
0.00200727
0.0020149
0.0020226
0.00203038
0.0020381
0.00204547
0.00205207
0.00205731
0.0020605
0.00206084
0.00205749
0.00204963
0.00203656
0.00201773
0.00199284
0.00196189
0.00192523
0.00188353
0.00183776
0.0017891
0.00173885
0.00168834
0.00163879
0.00159129
0.00154667
0.00150555
0.00146834
0.0014352
0.00140617
0.00138115
0.00135997
0.00134241
0.00132831
0.00131744
0.00130957
0.00130445
0.00130185
0.00130156
0.00130335
0.00130699
0.00131225
0.00131891
0.00132672
0.00133542
0.00134473
0.00135439
0.00136411
0.00137365
0.00138288
0.00139166
0.00139984
0.00140726
0.00141375
0.0014192
0.00142348
0.00142652
0.00142824
0.00142863
0.00142768
0.0014254
0.00142185
0.0014171
0.00141124
0.00140439
0.00139667
0.00138823
0.00137922
0.0013698
0.00136013
0.0013504
0.00134075
0.00133135
0.00132234
0.00131385
0.00130597
0.00129879
0.00129233
0.00128662
0.0012816
0.00127722
0.00127336
0.00126985
0.00126653
0.00126315
0.0012595
0.00125529
0.00125028
0.00124418
0.00123677
0.0012278
0.00121708
0.00120447
0.00118986
0.00117319
0.00115442
0.00113357
0.00111068
0.00108577
0.00105891
0.00103009
0.000999314
0.000966551
0.000931738
0.000894772
0.000855962
0.000815648
0.000774171
0.000731915
0.000689329
0.000646937
0.000605327
0.000565125
0.000526976
0.000491515
0.000459328
0.000430908
0.000406624
0.000386723
0.000371268
0.000360267
4.15887e-05
0.000279571
0.000500387
0.000624648
0.000695027
0.000732627
0.000750846
0.000759551
0.000766201
0.000775991
0.000792151
0.000816459
0.000849605
0.000891282
0.000940135
0.000993834
0.00104942
0.00110388
0.00115468
0.00120014
0.00123956
0.00127301
0.00130108
0.00132464
0.0013446
0.00136176
0.00137682
0.0013903
0.00140264
0.00141414
0.00142506
0.00143559
0.00144591
0.00145614
0.00146642
0.00147685
0.00148872
0.00150254
0.00151861
0.00153708
0.00155805
0.00158153
0.00160746
0.00163566
0.00166586
0.00169764
0.00173049
0.00176381
0.00179693
0.00182918
0.00185993
0.00188864
0.00191491
0.0019385
0.00195931
0.00197735
0.00199295
0.00200582
0.00201706
0.00202737
0.00203727
0.00204721
0.00205761
0.00206877
0.00208089
0.00209403
0.00210806
0.00212267
0.00213735
0.00215142
0.00216402
0.00217417
0.00218084
0.00218299
0.00217968
0.00217015
0.00215389
0.00213073
0.00210087
0.00206489
0.00202369
0.00197848
0.00193061
0.0018815
0.00183254
0.00178496
0.00173978
0.0016978
0.00165956
0.00162539
0.00159542
0.00156963
0.00154793
0.0015302
0.00151623
0.00150578
0.00149857
0.0014943
0.00149267
0.00149338
0.00149611
0.00150055
0.00150638
0.00151326
0.00152088
0.00152891
0.00153702
0.00154501
0.00155272
0.00155997
0.00156658
0.00157237
0.00157719
0.00158091
0.00158343
0.00158468
0.0015846
0.00158319
0.00158047
0.00157648
0.00157129
0.00156499
0.0015577
0.00154955
0.00154069
0.00153128
0.00152149
0.0015115
0.00150151
0.00149169
0.00148222
0.00147326
0.00146498
0.00145748
0.00145087
0.00144519
0.00144045
0.00143661
0.00143359
0.00143125
0.00142939
0.00142779
0.00142617
0.00142422
0.00142163
0.00141804
0.00141314
0.0014066
0.00139813
0.00138747
0.00137443
0.00135885
0.00134066
0.00131982
0.00129637
0.00127038
0.00124196
0.00121124
0.00117835
0.00114339
0.00110646
0.0010676
0.00102682
0.000984065
0.000939542
0.000893676
0.00084688
0.000799589
0.000752287
0.000705517
0.000659874
0.000615985
0.000574492
0.000536027
0.000501188
0.000470499
0.000444396
0.000423205
0.000407078
0.00039612
0.000222823
0.000365172
0.000549321
0.000677419
0.000757925
0.000805099
0.000831367
0.000846659
0.000858543
0.000872293
0.000891115
0.000916555
0.000948896
0.00098742
0.00103061
0.00107637
0.00112238
0.00116647
0.00120693
0.00124269
0.00127335
0.001299
0.00132007
0.00133716
0.00135091
0.00136188
0.00137058
0.00137743
0.00138281
0.00138705
0.00139046
0.00139335
0.001396
0.0013987
0.00140172
0.00140565
0.00141185
0.00142075
0.0014327
0.00144796
0.00146673
0.00148918
0.00151538
0.00154528
0.00157865
0.00161513
0.0016541
0.00169483
0.00173641
0.00177789
0.00181831
0.00185681
0.00189262
0.00192529
0.00195439
0.00197972
0.00200109
0.00201941
0.00203526
0.00204919
0.00206178
0.00207366
0.00208545
0.00209775
0.00211108
0.00212586
0.00214236
0.00216064
0.00218059
0.00220183
0.0022238
0.00224569
0.00226652
0.00228516
0.00230044
0.00231116
0.00231623
0.00231474
0.00230609
0.00228998
0.00226653
0.00223626
0.00220005
0.00215906
0.00211468
0.00206837
0.00202156
0.00197558
0.00193154
0.00189034
0.00185263
0.00181871
0.00178882
0.00176314
0.00174164
0.00172417
0.0017105
0.00170034
0.00169334
0.00168915
0.0016874
0.00168769
0.00168964
0.00169286
0.00169697
0.00170158
0.00170635
0.00171111
0.00171564
0.00171973
0.00172317
0.0017258
0.00172746
0.00172803
0.00172744
0.00172563
0.00172259
0.00171833
0.00171291
0.00170639
0.00169887
0.00169048
0.00168134
0.00167162
0.00166147
0.00165108
0.00164064
0.00163033
0.00162036
0.00161091
0.00160217
0.00159429
0.00158742
0.00158166
0.00157708
0.00157367
0.00157142
0.00157021
0.00156988
0.00157023
0.00157097
0.00157179
0.00157232
0.00157219
0.001571
0.00156833
0.00156379
0.00155703
0.00154772
0.00153559
0.00152041
0.00150206
0.00148045
0.00145558
0.00142752
0.00139639
0.00136236
0.00132564
0.00128644
0.00124498
0.00120145
0.00115601
0.00110875
0.00105977
0.0010092
0.000957612
0.000905488
0.000853318
0.000801612
0.000750925
0.000701842
0.000654971
0.000610923
0.0005703
0.000533676
0.000501573
0.000474444
0.000452656
0.000436408
0.000425851
0.000218887
0.000353532
0.000568636
0.000714126
0.000806403
0.000862983
0.000897148
0.000918902
0.000935698
0.000952688
0.000972969
0.000997957
0.00102781
0.00106179
0.00109853
0.00113631
0.00117337
0.00120808
0.00123924
0.00126608
0.0012883
0.00130594
0.00131929
0.00132876
0.00133477
0.00133779
0.00133823
0.00133652
0.00133307
0.00132834
0.00132277
0.00131683
0.00131099
0.00130569
0.00130131
0.00129925
0.00129999
0.00130387
0.00131125
0.00132249
0.001338
0.00135817
0.00138335
0.00141374
0.00144935
0.00148992
0.00153491
0.00158347
0.00163452
0.00168681
0.00173897
0.00178984
0.00183804
0.00188323
0.00192346
0.00195931
0.00199094
0.00201853
0.00204239
0.00206293
0.00208074
0.00209647
0.00211088
0.00212476
0.00213889
0.00215397
0.00217062
0.00218933
0.00221036
0.00223379
0.00225945
0.00228689
0.00231546
0.00234424
0.00237213
0.00239791
0.00242027
0.00243793
0.00244973
0.00245471
0.00245221
0.00244192
0.00242393
0.00239874
0.00236723
0.00233055
0.00229008
0.00224725
0.00220352
0.0021602
0.00211847
0.00207892
0.00204239
0.00200944
0.00198039
0.00195535
0.00193424
0.00191688
0.00190299
0.00189221
0.00188418
0.00187845
0.00187462
0.00187225
0.00187091
0.00187019
0.00186972
0.00186936
0.00186886
0.00186797
0.00186648
0.00186422
0.00186106
0.0018569
0.0018517
0.00184544
0.00183815
0.00182988
0.00182071
0.00181075
0.00180013
0.001789
0.00177751
0.00176584
0.00175417
0.0017427
0.00173161
0.00172111
0.00171139
0.00170263
0.00169501
0.00168866
0.00168371
0.00168021
0.00167819
0.0016776
0.00167834
0.00168023
0.00168303
0.00168645
0.00169013
0.00169367
0.00169664
0.00169857
0.00169903
0.00169754
0.00169369
0.00168707
0.00167736
0.00166426
0.00164755
0.00162709
0.0016028
0.00157468
0.00154281
0.00150733
0.00146843
0.00142638
0.00138146
0.00133395
0.00128416
0.00123235
0.00117877
0.00112362
0.00106715
0.00101001
0.000952802
0.000896077
0.000840379
0.000786267
0.000734311
0.000685086
0.000639157
0.000597076
0.000559369
0.000526529
0.000498992
0.000477122
0.000461133
0.000451184
4.50505e-05
0.000318967
0.00057803
0.000739646
0.000842003
0.000906999
0.000948437
0.00097616
0.000997362
0.001017
0.00103806
0.00106193
0.0010888
0.00111805
0.00114855
0.00117893
0.00120779
0.00123391
0.00125633
0.00127448
0.00128809
0.00129716
0.00130189
0.0013026
0.00129967
0.00129354
0.00128469
0.00127366
0.00126101
0.00124737
0.00123336
0.00121963
0.00120677
0.00119539
0.00118603
0.00117972
0.00117602
0.00117501
0.00117703
0.00118263
0.00119255
0.00120761
0.00122861
0.00125623
0.00129089
0.00133269
0.00138126
0.00143577
0.00149505
0.00155766
0.00162159
0.0016859
0.00174746
0.00180579
0.00186031
0.00191047
0.00195585
0.00199622
0.00203161
0.00206225
0.00208858
0.00211121
0.00213092
0.00214856
0.00216504
0.0021813
0.0021982
0.00221655
0.002237
0.00226001
0.00228585
0.0023145
0.00234573
0.00237899
0.00241351
0.00244826
0.00248204
0.00251356
0.00254143
0.00256435
0.00258114
0.00259086
0.00259288
0.00258693
0.00257314
0.00255204
0.00252451
0.0024917
0.00245494
0.00241565
0.00237516
0.00233446
0.00229481
0.0022572
0.00222234
0.00219069
0.00216245
0.00213767
0.00211622
0.00209786
0.00208227
0.00206907
0.00205785
0.00204817
0.00203961
0.00203175
0.00202421
0.00201689
0.00200951
0.00200183
0.00199365
0.00198482
0.00197522
0.0019648
0.00195357
0.00194154
0.00192878
0.0019154
0.00190151
0.00188726
0.0018728
0.00185831
0.00184397
0.00182997
0.0018165
0.00180377
0.00179196
0.00178127
0.00177189
0.00176398
0.00175769
0.00175313
0.00175037
0.00174942
0.00175023
0.0017527
0.00175664
0.00176179
0.00176785
0.00177442
0.00178109
0.00178737
0.00179279
0.00179683
0.001799
0.00179883
0.00179586
0.0017897
0.00178001
0.0017665
0.00174896
0.00172722
0.00170123
0.00167096
0.00163649
0.00159794
0.00155552
0.00150948
0.00146012
0.00140779
0.00135286
0.00129569
0.00123666
0.0011761
0.0011144
0.00105235
0.000990678
0.000930002
0.000870916
0.000813989
0.00075978
0.000708827
0.000661643
0.000618721
0.00058053
0.000547511
0.000520062
0.000498514
0.000483067
0.000473856
0.000224525
0.000368612
0.000595301
0.00075741
0.000866464
0.000938721
0.0009868
0.00102004
0.00104527
0.00106724
0.00108884
0.00111148
0.00113545
0.00116029
0.00118509
0.00120875
0.00123015
0.00124831
0.00126247
0.00127215
0.00127716
0.0012775
0.00127341
0.00126523
0.00125346
0.0012387
0.00122162
0.001203
0.00118362
0.00116426
0.00114566
0.00112845
0.00111317
0.00110025
0.00109007
0.00108203
0.00107493
0.00106866