/*--------------------------------*- C++ -*----------------------------------*\
  =========                 |
  \\      /  F ield         | OpenFOAM: The Open Source CFD Toolbox
   \\    /   O peration     | Website:  https://openfoam.org
    \\  /    A nd           | Version:  9
     \\/     M anipulation  |
\*---------------------------------------------------------------------------*/
FoamFile
{
    format      ascii;
    class       volScalarField;
    location    "0.11";
    object      p;
}
// * * * * * * * * * * * * * * * * * * * * * * * * * * * * * * * * * * * * * //

dimensions      [0 2 -2 0 0 0 0];

internalField   nonuniform List<scalar> 
12225
(
1.19676
-1.14354
-2.30961
-2.59919
-2.7527
-2.89046
-2.99024
-3.04966
-3.08463
-3.10431
-3.10919
-3.09777
-3.06878
-3.0202
-2.9489
-2.84848
-2.71659
-2.51808
-2.40702
-3.06452
-3.11653
-2.95799
-2.90194
-2.95391
-3.01318
-3.05165
-3.07504
-3.08776
-3.08859
-3.0751
-3.04541
-2.99719
-2.92734
-2.82968
-2.70108
-2.51831
-2.52845
-2.39034
-2.55222
-2.68048
-2.77795
-2.88428
-2.97011
-3.02472
-3.05811
-3.0775
-3.08346
-3.07443
-3.04893
-3.00507
-2.9402
-2.84936
-2.73007
-2.57192
-2.38473
-2.3049
-2.5852
-2.7555
-2.83241
-2.91075
-2.98324
-3.03321
-3.06473
-3.08348
-3.08981
-3.0821
-3.05893
-3.01865
-2.95912
-2.87682
-2.76974
-2.63328
-2.3999
-2.41736
-2.65282
-2.79098
-2.85099
-2.91817
-2.98622
-3.03559
-3.06741
-3.08682
-3.09451
-3.08911
-3.06942
-3.03419
-2.98186
-2.91023
-2.81793
-2.70315
-2.46471
-2.50467
-2.67587
-2.79634
-2.86027
-2.92591
-2.99123
-3.0402
-3.07277
-3.09341
-3.10305
-3.10067
-3.08534
-3.05627
-3.01255
-2.95316
-2.87773
-2.7869
-2.52595
-2.56233
-2.69266
-2.80555
-2.87466
-2.93783
-2.99921
-3.04731
-3.0808
-3.10307
-3.11518
-3.11651
-3.10645
-3.08467
-3.05097
-3.00536
-2.94866
-2.88324
-2.58106
-2.61317
-2.71779
-2.82143
-2.89129
-2.95134
-3.00901
-3.05639
-3.09108
-3.11542
-3.13058
-3.13636
-3.13249
-3.11913
-3.09673
-3.06618
-3.02934
-2.98968
-2.63352
-2.6628
-2.74812
-2.84029
-2.90848
-2.96611
-3.02089
-3.06769
-3.10377
-3.13057
-3.14934
-3.16024
-3.16339
-3.15937
-3.14919
-3.13448
-3.11783
-3.10329
-2.68419
-2.71059
-2.78058
-2.86141
-2.92688
-2.98265
-3.03516
-3.08147
-3.11904
-3.14866
-3.17152
-3.18811
-3.19891
-3.20486
-3.20742
-3.20873
-3.21182
-3.22091
-2.73294
-2.75621
-2.81424
-2.88493
-2.94698
-3.00106
-3.0518
-3.0978
-3.13701
-3.16974
-3.19708
-3.21978
-3.23863
-3.25485
-3.27023
-3.28717
-3.30887
-3.33939
-2.77576
-2.79629
-2.84584
-2.90849
-2.96703
-3.01958
-3.06912
-3.1151
-3.15594
-3.19173
-3.22342
-3.25194
-3.27829
-3.30388
-3.33064
-3.36104
-3.39822
-3.44586
-2.81637
-2.83458
-2.87734
-2.9331
-2.98815
-3.03923
-3.08793
-3.13411
-3.17668
-3.21561
-3.25172
-3.28606
-3.31976
-3.35434
-3.39176
-3.43444
-3.4853
-3.54753
-2.86034
-2.87631
-2.91301
-2.96231
-3.01364
-3.06316
-3.11127
-3.15799
-3.20265
-3.2452
-3.28636
-3.32719
-3.36891
-3.41305
-3.46149
-3.51643
-3.58042
-3.65601
-2.90685
-2.92076
-2.95237
-2.99603
-3.04376
-3.09175
-3.13959
-3.18725
-3.23437
-3.28093
-3.32756
-3.37523
-3.42515
-3.47873
-3.53764
-3.60371
-3.67896
-3.76521
-2.95445
-2.96664
-2.99428
-3.03345
-3.07811
-3.12485
-3.17281
-3.22182
-3.27166
-3.32237
-3.37443
-3.42867
-3.48615
-3.54803
-3.61562
-3.69027
-3.7734
-3.86608
-3.0007
-3.01163
-3.03656
-3.07266
-3.11519
-3.16122
-3.20974
-3.26039
-3.31298
-3.3675
-3.42429
-3.48394
-3.5472
-3.6149
-3.68791
-3.76705
-3.85312
-3.94656
-3.04139
-3.05168
-3.07525
-3.10991
-3.15164
-3.19782
-3.24735
-3.29975
-3.35472
-3.41215
-3.47213
-3.53499
-3.60111
-3.67095
-3.74492
-3.82336
-3.9066
-3.9946
-3.06911
-3.0795
-3.10333
-3.13858
-3.18131
-3.22884
-3.27995
-3.33402
-3.39064
-3.44945
-3.51033
-3.57326
-3.63832
-3.70562
-3.77521
-3.84697
-3.921
-3.997
-3.07025
-3.0816
-3.10755
-3.14578
-3.19169
-3.24195
-3.29516
-3.35079
-3.40833
-3.46726
-3.52724
-3.58813
-3.64986
-3.71232
-3.77539
-3.83904
-3.90296
-3.96687
-3.05479
-3.0674
-3.09648
-3.13926
-3.18963
-3.2433
-3.29899
-3.35639
-3.41493
-3.47392
-3.53299
-3.59199
-3.6508
-3.70925
-3.76715
-3.82432
-3.88053
-3.93553
-3.02766
-3.04157
-3.07511
-3.12481
-3.18108
-3.23847
-3.29684
-3.35647
-3.41637
-3.4756
-3.5339
-3.59124
-3.64753
-3.70255
-3.75611
-3.80802
-3.85808
-3.90605
-2.99258
-3.00678
-3.0459
-3.10586
-3.16975
-3.2309
-3.29191
-3.35389
-3.41528
-3.47492
-3.53277
-3.58894
-3.64332
-3.6957
-3.74593
-3.79384
-3.83926
-3.88201
-2.9527
-2.96563
-3.01176
-3.08406
-3.15594
-3.2217
-3.28663
-3.35138
-3.41391
-3.47366
-3.53111
-3.5864
-3.63932
-3.68968
-3.73737
-3.78227
-3.82424
-3.86312
-2.9089
-2.9184
-2.9818
-3.06646
-3.13965
-3.20824
-3.27925
-3.34855
-3.41274
-3.47276
-3.53002
-3.5847
-3.63653
-3.68534
-3.73112
-3.77379
-3.81326
-3.84941
-2.86188
-2.84528
-2.95777
-3.0678
-3.13465
-3.19753
-3.27068
-3.34316
-3.40884
-3.46946
-3.527
-3.58157
-3.63283
-3.6807
-3.72525
-3.76645
-3.80424
-3.83852
-2.8434
-2.71506
-2.88571
-3.05638
-3.14294
-3.20806
-3.28031
-3.35067
-3.41429
-3.4736
-3.53021
-3.58383
-3.63403
-3.68075
-3.72406
-3.76393
-3.80036
-3.83328
-2.98902
-2.67232
-2.7253
-2.88313
-3.01922
-3.13538
-3.23796
-3.32286
-3.39467
-3.45968
-3.52019
-3.57625
-3.6279
-3.67543
-3.71908
-3.75893
-3.79524
-3.82839
-3.02178
-3.47943
-3.46191
-3.29775
-3.21732
-3.25159
-3.3163
-3.37609
-3.43156
-3.48642
-3.54015
-3.59119
-3.63892
-3.68324
-3.72409
-3.76127
-3.7948
-3.82626
0.45371
-1.47281
-2.56212
-2.85504
-2.99375
-3.13489
-3.25384
-3.34218
-3.41415
-3.47955
-3.54027
-3.59608
-3.6472
-3.69404
-3.73672
-3.77494
-3.80814
-3.83426
-11.4086
-11.4057
-11.413
-11.4383
-11.4808
-11.5333
-11.5841
-11.6197
-11.6286
-11.6047
-11.5455
-11.4559
-11.3436
-11.2198
-11.0987
-10.9958
-10.9208
-10.8847
-10.8865
-10.923
-10.988
-11.0737
-11.1732
-11.2801
-11.3884
-11.4919
-11.583
-11.6529
-11.6913
-11.687
-11.6286
-11.5051
-11.3068
-11.026
-10.6569
-10.1942
-9.63083
-8.96541
-8.19314
-7.32343
-6.36659
-5.33385
-4.23744
-3.09047
-1.90661
-0.699753
0.516403
1.7287
2.92485
4.09371
5.22543
6.31169
7.34567
8.32216
9.23748
10.0897
10.8792
11.6065
12.2705
12.8709
13.4095
13.8889
14.3121
14.6824
15.0035
15.279
15.5125
15.7077
15.8681
15.9973
16.0985
16.1749
16.2295
16.2649
16.2837
16.2882
16.2804
16.262
16.2347
16.1998
16.1584
16.1117
16.0605
16.0055
15.9475
15.8874
15.8267
15.7618
15.6945
15.6255
15.5555
15.4847
15.4137
15.3428
15.2723
15.2028
15.1346
15.0682
15.0041
14.9428
14.885
14.8311
14.7819
14.7379
14.6999
14.6686
14.6448
14.6288
14.6206
14.6203
14.6287
14.6461
14.6725
14.7081
14.7526
14.8059
14.8676
14.9372
15.0143
15.0982
15.1883
15.284
15.3844
15.4889
15.5966
15.707
15.8191
15.9324
16.0461
16.1595
16.2719
16.3828
16.4915
16.5973
16.6996
16.7978
16.8913
16.9795
17.0616
17.137
17.2051
17.2653
17.3169
17.3595
17.3924
17.4154
17.4282
17.4307
17.4231
17.4057
17.3794
17.3453
17.3047
17.2611
17.2192
17.1613
17.0959
17.0274
16.9593
16.8945
16.8358
16.7869
16.7508
16.7301
16.7268
16.7418
16.7758
16.8288
16.8999
16.9864
17.0879
17.2013
17.3215
17.44
17.4891
17.7156
18.0943
18.4268
18.8409
19.3649
-11.4724
-11.4466
-11.4837
-11.5599
-11.6436
-11.7216
-11.7849
-11.8242
-11.8318
-11.8025
-11.7302
-11.6146
-11.4626
-11.2872
-11.108
-10.9464
-10.8235
-10.7541
-10.7432
-10.7842
-10.8646
-10.9722
-11.098
-11.2361
-11.3815
-11.5278
-11.6663
-11.786
-11.8742
-11.9176
-11.903
-11.8179
-11.6508
-11.3921
-11.0338
-10.5711
-10.0042
-9.33246
-8.56756
-7.7115
-6.77005
-5.75219
-4.66894
-3.53269
-2.3567
-1.15462
0.0599765
1.27397
2.47506
3.65203
4.79494
5.89528
6.94604
7.94169
8.87802
9.75182
10.5603
11.3029
11.9811
12.5962
13.15
13.645
14.0839
14.4699
14.8065
15.0972
15.3455
15.5549
15.729
15.8713
15.9849
16.073
16.1385
16.1843
16.2126
16.2259
16.2262
16.2152
16.1946
16.1658
16.1299
16.088
16.041
15.9897
15.9346
15.876
15.8134
15.7501
15.6852
15.6189
15.5514
15.4828
15.4136
15.3443
15.2751
15.2067
15.1393
15.0734
15.0096
14.9484
14.8903
14.836
14.786
14.7409
14.7015
14.6683
14.6417
14.6221
14.6106
14.6077
14.6136
14.6285
14.6525
14.6857
14.7279
14.7791
14.8388
14.9066
14.9822
15.0648
15.1538
15.2486
15.3484
15.4524
15.5599
15.6702
15.7824
15.8958
16.0098
16.1235
16.2364
16.3478
16.457
16.5634
16.6664
16.7653
16.8596
16.9484
17.0313
17.1075
17.1764
17.2373
17.2898
17.3331
17.3668
17.3906
17.4042
17.4074
17.4005
17.3838
17.3583
17.3251
17.2858
17.2392
17.1814
17.1236
17.0629
17.0014
16.9408
16.8829
16.8302
16.7859
16.753
16.7342
16.7318
16.7472
16.7812
16.8338
16.9042
16.9912
17.0926
17.2077
17.3368
17.4852
17.6974
17.8498
17.9856
18.2345
18.6124
19.0735
-11.589
-11.5832
-11.6505
-11.7575
-11.8658
-11.9589
-12.0284
-12.0674
-12.0729
-12.0385
-11.9641
-11.8493
-11.6968
-11.5152
-11.3232
-11.1472
-11.0166
-10.9513
-10.9546
-11.0173
-11.1253
-11.2655
-11.4278
-11.6035
-11.7847
-11.9622
-12.1258
-12.2643
-12.3657
-12.4178
-12.409
-12.3281
-12.1652
-11.9115
-11.5596
-11.1045
-10.5445
-9.88009
-9.1156
-8.25609
-7.30889
-6.28352
-5.1913
-4.04489
-2.85781
-1.64394
-0.417111
0.80939
2.02313
3.21282
4.36854
5.48185
6.54585
7.5551
8.50552
9.39409
10.2186
10.9783
11.6742
12.3074
12.8796
13.393
13.8505
14.255
14.6098
14.9182
15.1837
15.4097
15.5995
15.7565
15.884
15.9848
16.062
16.1183
16.1562
16.178
16.1858
16.1814
16.1667
16.1429
16.1115
16.0734
16.0297
15.9812
15.9286
15.8724
15.8128
15.751
15.687
15.6209
15.5535
15.485
15.4157
15.3461
15.2766
15.2076
15.1394
15.0727
15.0078
14.9452
14.8857
14.8297
14.7779
14.7309
14.6895
14.654
14.6251
14.6037
14.5901
14.5849
14.5884
14.6009
14.6225
14.6534
14.6935
14.7426
14.8004
14.8666
14.9407
15.0221
15.1101
15.2042
15.3034
15.4071
15.5145
15.6247
15.7371
15.8508
15.9651
16.0794
16.1928
16.3048
16.4146
16.5217
16.6254
16.725
16.8199
16.9095
16.9931
17.07
17.1396
17.2013
17.2544
17.2984
17.3328
17.3573
17.3715
17.3754
17.3691
17.353
17.3279
17.2947
17.2547
17.2087
17.1559
17.101
17.0424
16.9816
16.921
16.8635
16.8122
16.7699
16.7392
16.7227
16.7224
16.7398
16.7755
16.8298
16.9019
16.9899
17.0911
17.2034
17.3228
17.4498
17.6149
17.7698
17.9447
18.1919
18.4973
18.8132
-11.6967
-11.7474
-11.8291
-11.9324
-12.0375
-12.1305
-12.2028
-12.2483
-12.2609
-12.2383
-12.1798
-12.0867
-11.9636
-11.821
-11.6768
-11.554
-11.4753
-11.4546
-11.4943
-11.5881
-11.7256
-11.8965
-12.0907
-12.2991
-12.5119
-12.7192
-12.9099
-13.0725
-13.1946
-13.264
-13.2683
-13.196
-13.0364
-12.7803
-12.4205
-11.9521
-11.3736
-10.6856
-9.89173
-8.99786
-8.01237
-6.94584
-5.81065
-4.62054
-3.39006
-2.13409
-0.867282
0.396384
1.64397
2.86388
4.04607
5.18214
6.26537
7.29062
8.25425
9.15385
9.98808
10.7569
11.4618
12.1042
12.6857
13.2087
13.6762
14.0913
14.4572
14.7771
15.0546
15.2927
15.4948
15.6639
15.803
15.9151
16.0028
16.0688
16.1156
16.1453
16.16
16.1617
16.1521
16.1327
16.1049
16.0698
16.0284
15.9817
15.9303
15.875
15.8161
15.7545
15.6905
15.6243
15.5565
15.4874
15.4174
15.3468
15.2761
15.2057
15.1361
15.0676
15.0009
14.9365
14.875
14.8169
14.7628
14.7136
14.6697
14.6319
14.6007
14.5769
14.5609
14.5534
14.5546
14.5648
14.5844
14.6132
14.6515
14.6989
14.7552
14.8201
14.8931
14.9736
15.061
15.1546
15.2536
15.3572
15.4647
15.5752
15.6879
15.8022
15.9171
16.0319
16.1461
16.2588
16.3694
16.4772
16.5817
16.6821
16.7778
16.8682
16.9526
17.0303
17.1007
17.1631
17.217
17.2617
17.2968
17.3219
17.3368
17.3414
17.3357
17.3203
17.2957
17.263
17.2231
17.1765
17.1237
17.0676
17.0092
16.9503
16.8928
16.8393
16.7921
16.7537
16.7265
16.7131
16.7152
16.7343
16.7714
16.8267
16.8992
16.9874
17.0888
17.2011
17.3222
17.4532
17.6035
17.7502
17.9054
18.0998
18.3269
18.538
-11.5961
-11.6971
-11.7797
-11.8787
-11.9824
-12.0796
-12.1627
-12.2262
-12.2656
-12.2782
-12.2638
-12.225
-12.168
-12.1037
-12.0475
-12.0169
-12.0263
-12.0836
-12.19
-12.3413
-12.5309
-12.751
-12.993
-13.2479
-13.5061
-13.7566
-13.9879
-14.1873
-14.3416
-14.4375
-14.4616
-14.4015
-14.2456
-13.9844
-13.61
-13.1182
-12.5069
-11.7773
-10.9335
-9.98241
-8.93379
-7.79975
-6.59432
-5.3329
-4.0317
-2.7071
-1.37507
-0.0506756
1.25234
2.52188
3.74766
4.9213
6.03627
7.08783
8.07281
8.98939
9.83697
10.6164
11.3298
11.979
12.5661
13.0941
13.5663
13.9862
14.3571
14.6826
14.9661
15.2109
15.4203
15.5973
15.7447
15.8652
15.9614
16.0357
16.0902
16.1272
16.1485
16.1559
16.1512
16.1358
16.1112
16.0785
16.0389
15.9932
15.9424
15.8871
15.828
15.7656
15.7004
15.6329
15.5634
15.4924
15.4203
15.3475
15.2744
15.2015
15.1293
15.0582
14.9889
14.9217
14.8574
14.7966
14.7399
14.688
14.6415
14.6011
14.5675
14.5413
14.523
14.5132
14.5123
14.5206
14.5383
14.5656
14.6023
14.6484
14.7037
14.7678
14.8402
14.9203
15.0075
15.1011
15.2004
15.3044
15.4125
15.5237
15.6372
15.7523
15.8682
15.9841
16.0992
16.213
16.3246
16.4335
16.5391
16.6405
16.7373
16.8287
16.9141
16.9928
17.0642
17.1276
17.1824
17.228
17.264
17.29
17.3057
17.3111
17.3063
17.2916
17.2677
17.2355
17.1958
17.1496
17.0978
17.0425
16.9854
16.928
16.8724
16.8209
16.776
16.74
16.7153
16.7041
16.7082
16.729
16.7673
16.8233
16.8963
16.9846
17.0858
17.1969
17.3154
17.4405
17.5749
17.7081
17.8459
18.0041
18.1715
18.3088
-11.2403
-11.3649
-11.4696
-11.577
-11.6879
-11.7963
-11.8975
-11.9882
-12.0662
-12.131
-12.1836
-12.2272
-12.2676
-12.3138
-12.3765
-12.4666
-12.5923
-12.7576
-12.9625
-13.2042
-13.4779
-13.7774
-14.0954
-14.4235
-14.7518
-15.0691
-15.3628
-15.619
-15.8233
-15.9608
-16.0167
-15.9771
-15.8296
-15.5634
-15.1706
-14.6468
-13.9901
-13.2024
-12.2889
-11.2581
-10.1216
-8.8938
-7.59091
-6.23071
-4.83167
-3.41225
-1.99023
-0.582106
0.797357
2.13546
3.42169
4.64778
5.80756
6.89681
7.91301
8.85505
9.72313
10.5192
11.2456
11.9045
12.4992
13.0329
13.5094
13.9326
14.3062
14.6341
14.9199
15.1674
15.3797
15.56
15.7114
15.8364
15.9376
16.0172
16.0772
16.1197
16.1463
16.1588
16.1585
16.147
16.1255
16.0952
16.0572
16.0125
15.9619
15.9062
15.8462
15.7824
15.7154
15.6457
15.5737
15.4999
15.4247
15.3487
15.2723
15.196
15.1204
15.0458
14.9729
14.9023
14.8346
14.7704
14.7104
14.6553
14.6058
14.5625
14.5261
14.4973
14.4765
14.4644
14.4614
14.4677
14.4837
14.5094
14.5449
14.59
14.6444
14.708
14.7801
14.8602
14.9476
15.0417
15.1416
15.2465
15.3555
15.4678
15.5825
15.6988
15.816
15.9332
16.0496
16.1647
16.2777
16.3879
16.4947
16.5975
16.6955
16.7882
16.8748
16.9547
17.0273
17.0919
17.1479
17.1947
17.2318
17.259
17.2758
17.2823
17.2785
17.2649
17.242
17.2106
17.1717
17.1263
17.0756
17.0214
16.9654
16.9095
16.8557
16.8062
16.7635
16.7299
16.7075
16.6983
16.7042
16.7263
16.7653
16.8215
16.8939
16.9811
17.0803
17.1885
17.3026
17.4211
17.5439
17.6647
17.7846
17.9102
18.0285
18.1117
-10.6897
-10.8358
-10.9705
-11.0983
-11.2237
-11.3487
-11.4738
-11.5995
-11.7269
-11.8573
-11.9926
-12.1361
-12.2921
-12.4664
-12.6652
-12.8938
-13.1558
-13.4527
-13.7837
-14.1463
-14.5366
-14.9493
-15.3776
-15.8127
-16.2444
-16.6603
-17.0464
-17.387
-17.6656
-17.8653
-17.9694
-17.9622
-17.8297
-17.5599
-17.1448
-16.58
-15.8641
-15.0002
-13.9951
-12.8594
-11.6075
-10.2566
-8.82596
-7.33668
-5.81025
-4.26794
-2.72989
-1.21442
0.262503
1.68755
3.05012
4.34229
5.55854
6.69546
7.75147
8.72648
9.62202
10.4406
11.185
11.8583
12.4642
13.0067
13.4899
13.9179
14.2951
14.6254
14.9129
15.1614
15.3745
15.5555
15.7076
15.8337
15.9362
16.0176
16.0799
16.125
16.1545
16.17
16.1727
16.164
16.145
16.1167
16.0802
16.0362
15.9858
15.9297
15.8685
15.8031
15.7338
15.6614
15.5863
15.5091
15.4303
15.3505
15.27
15.1896
15.1097
15.0309
14.9538
14.879
14.8072
14.739
14.6752
14.6164
14.5633
14.5167
14.4771
14.4453
14.4218
14.4072
14.4018
14.4061
14.4203
14.4446
14.4788
14.523
14.577
14.6402
14.7124
14.7928
14.8808
14.9757
15.0766
15.1826
15.293
15.4067
15.523
15.6409
15.7597
15.8785
15.9966
16.1132
16.2278
16.3396
16.4479
16.5521
16.6517
16.7458
16.8339
16.9152
16.9893
17.0553
17.1127
17.1609
17.1995
17.2281
17.2463
17.2542
17.2519
17.2396
17.218
17.1878
17.1501
17.1058
17.0564
17.0036
16.9491
16.8948
16.8428
16.7954
16.7549
16.7235
16.7033
16.6962
16.7036
16.7268
16.7662
16.822
16.8933
16.9784
17.0747
17.1791
17.2883
17.3997
17.5113
17.6186
17.7201
17.8176
17.8974
17.9404
-10.0649
-10.2295
-10.3947
-10.5491
-10.694
-10.8398
-10.9937
-11.16
-11.3426
-11.5444
-11.7681
-12.0163
-12.2918
-12.5976
-12.9365
-13.3103
-13.72
-14.1655
-14.6452
-15.1566
-15.6955
-16.2565
-16.832
-17.4123
-17.9856
-18.5374
-19.0513
-19.509
-19.8913
-20.1782
-20.3506
-20.3902
-20.281
-20.01
-19.5689
-18.9535
-18.1633
-17.2028
-16.0812
-14.812
-13.413
-11.9053
-10.3124
-8.65962
-6.97253
-5.27615
-3.59373
-1.94588
-0.350007
1.18001
2.63376
4.00399
5.28632
6.4786
7.58071
8.59436
9.52226
10.3674
11.1334
11.8245
12.4449
12.9992
13.4917
13.9272
14.3099
14.6444
14.9347
15.185
15.3989
15.5801
15.732
15.8574
15.9592
16.0399
16.1016
16.1465
16.176
16.1919
16.1953
16.1874
16.1693
16.1419
16.1059
16.0623
16.0117
15.9549
15.8925
15.8252
15.7537
15.6784
15.6
15.5191
15.4363
15.3521
15.2671
15.182
15.0973
15.0137
14.9318
14.8523
14.7758
14.7031
14.6349
14.5719
14.5148
14.4643
14.4211
14.386
14.3594
14.342
14.3341
14.3362
14.3486
14.3713
14.4045
14.4479
14.5015
14.5647
14.6371
14.7182
14.8071
14.9031
15.0054
15.1131
15.2252
15.3408
15.4589
15.5788
15.6995
15.8203
15.9403
16.0588
16.1752
16.2887
16.3988
16.5047
16.6059
16.7017
16.7915
16.8745
16.9502
17.0179
17.0771
17.127
17.1673
17.1976
17.2176
17.2272
17.2266
17.216
17.196
17.1674
17.1312
17.0884
17.0406
16.9893
16.9364
16.8839
16.8339
16.7886
16.7503
16.7211
16.703
16.6978
16.7067
16.7308
16.7704
16.8254
16.895
16.9775
17.0702
17.1698
17.2729
17.3763
17.477
17.571
17.6555
17.7293
17.779
17.7917
-9.47347
-9.65643
-9.84031
-10.0138
-10.177
-10.3457
-10.5314
-10.7409
-10.9796
-11.252
-11.5612
-11.9098
-12.2996
-12.7321
-13.2082
-13.7284
-14.2924
-14.8992
-15.5467
-16.2316
-16.9491
-17.6924
-18.4523
-19.2171
-19.9721
-20.7
-21.3808
-21.9923
-22.5114
-22.9143
-23.1783
-23.2821
-23.2069
-22.9385
-22.4686
-21.7931
-20.9126
-19.8337
-18.5683
-17.1339
-15.5525
-13.8502
-12.056
-10.2006
-8.31521
-6.42975
-4.5716
-2.76433
-1.02701
0.625963
2.18473
3.64336
4.99917
6.25212
7.40478
8.46035
9.42242
10.2957
11.0851
11.7956
12.4322
12.9999
13.5036
13.9482
14.3384
14.6788
14.9736
15.2271
15.4431
15.6254
15.7774
15.9022
16.0029
16.082
16.1419
16.1848
16.2124
16.2264
16.2282
16.219
16.1997
16.1713
16.1345
16.09
16.0384
15.9803
15.9164
15.8471
15.7731
15.6949
15.6131
15.5284
15.4414
15.3526
15.2629
15.1728
15.083
14.9942
14.9071
14.8224
14.7408
14.6631
14.59
14.5223
14.4606
14.4059
14.3587
14.3198
14.2898
14.2693
14.2587
14.2585
14.2689
14.2901
14.3222
14.365
14.4183
14.4817
14.5547
14.6367
14.727
14.8246
14.9288
15.0384
15.1527
15.2705
15.391
15.5132
15.6362
15.7592
15.8815
16.0021
16.1206
16.2362
16.3482
16.4561
16.5592
16.6569
16.7486
16.8335
16.9112
16.9808
17.0419
17.0938
17.1362
17.1685
17.1905
17.2022
17.2035
17.1949
17.1768
17.15
17.1156
17.0746
17.0285
16.979
16.9279
16.8773
16.8293
16.7861
16.7499
16.7228
16.7068
16.7033
16.7136
16.7384
16.7779
16.8319
16.8994
16.9786
17.067
17.1611
17.2574
17.3524
17.4425
17.5237
17.5927
17.6464
17.6723
17.6621
-8.98078
-9.1406
-9.34757
-9.53672
-9.71504
-9.90611
-10.1225
-10.3727
-10.6635
-11.0004
-11.3874
-11.8274
-12.3224
-12.8737
-13.4822
-14.1479
-14.8705
-15.6486
-16.4797
-17.3596
-18.2823
-19.2393
-20.2191
-21.2068
-22.1842
-23.1297
-24.0183
-24.823
-25.5151
-26.0661
-26.4481
-26.6361
-26.608
-26.348
-25.8484
-25.1043
-24.1182
-22.8993
-21.4631
-19.8314
-18.0313
-16.0948
-14.0574
-11.957
-9.83185
-7.71861
-5.65015
-3.65418
-1.7518
0.0421373
1.71879
3.27447
4.70978
6.02785
7.23284
8.33035
9.32656
10.2277
11.0401
11.7696
12.4222
13.0035
13.5188
13.9733
14.3719
14.7192
15.0197
15.2777
15.4971
15.6817
15.835
15.9602
16.0604
16.1382
16.1963
16.2368
16.2617
16.2728
16.2716
16.2594
16.2373
16.2062
16.1669
16.12
16.0662
16.0059
15.9395
15.8677
15.7909
15.7096
15.6243
15.5358
15.4445
15.3512
15.2567
15.1615
15.0664
14.9722
14.8796
14.7894
14.7023
14.6192
14.5408
14.4679
14.4013
14.3419
14.2903
14.2472
14.2134
14.1895
14.1759
14.1731
14.1815
14.2011
14.2321
14.2744
14.3276
14.3915
14.4655
14.5488
14.6408
14.7405
14.8469
14.9591
15.076
15.1966
15.3199
15.4449
15.5706
15.6962
15.821
15.9442
16.065
16.1829
16.2972
16.4073
16.5125
16.6124
16.7062
16.7933
16.8731
16.9449
17.0083
17.0625
17.1071
17.1417
17.166
17.18
17.1836
17.1771
17.1612
17.1364
17.1039
17.0648
17.0206
16.973
16.9238
16.8751
16.8291
16.788
16.7539
16.7289
16.7147
16.7129
16.7243
16.7496
16.7887
16.8414
16.9064
16.9819
17.0654
17.1534
17.2425
17.3288
17.4086
17.4778
17.5326
17.5692
17.5763
17.5486
-8.54315
-8.74125
-8.9294
-9.12014
-9.31301
-9.52421
-9.76747
-10.0527
-10.3881
-10.7804
-11.2349
-11.7558
-12.346
-13.0078
-13.7427
-14.5518
-15.435
-16.3912
-17.4177
-18.5097
-19.66
-20.8579
-22.0892
-23.3355
-24.5737
-25.7769
-26.9139
-27.9508
-28.8522
-29.5828
-30.1091
-30.4009
-30.4327
-30.1874
-29.6574
-28.8377
-27.7336
-26.3576
-24.7292
-22.8745
-20.8257
-18.6206
-16.3017
-13.9153
-11.5089
-9.12815
-6.81353
-4.59889
-2.50824
-0.556435
1.25011
2.91162
4.43131
5.81549
7.07251
8.21099
9.2396
10.1667
11
11.7469
12.4141
13.0078
13.5338
13.9977
14.4045
14.759
15.0657
15.329
15.5527
15.7407
15.8964
16.0231
16.1239
16.2014
16.2584
16.2971
16.3195
16.3276
16.3231
16.3072
16.2813
16.2464
16.2034
16.1529
16.0955
16.0318
15.9622
15.8871
15.8069
15.722
15.6331
15.5405
15.4449
15.3471
15.2477
15.1474
15.047
14.9473
14.849
14.7531
14.6603
14.5714
14.4873
14.4089
14.337
14.2724
14.2159
14.1683
14.1303
14.1026
14.0858
14.0803
14.0864
14.1044
14.1344
14.1762
14.2296
14.2942
14.3694
14.4545
14.5486
14.6509
14.7601
14.8754
14.9955
15.1193
15.2459
15.3741
15.503
15.6317
15.7594
15.8854
16.009
16.1295
16.2463
16.3588
16.4665
16.5687
16.665
16.7545
16.8368
16.9111
16.977
17.0337
17.0809
17.1181
17.145
17.1614
17.1675
17.1635
17.1498
17.1273
17.0969
17.0598
17.0175
16.9718
16.9245
16.8778
16.8337
16.7946
16.7624
16.7393
16.7269
16.7264
16.7387
16.7642
16.8027
16.8537
16.9158
16.9873
17.0654
17.1471
17.2286
17.3062
17.3759
17.4339
17.476
17.4981
17.4901
17.4489
-8.22227
-8.37427
-8.57021
-8.76185
-8.95858
-9.18135
-9.4434
-9.7551
-10.1257
-10.5632
-11.0745
-11.6653
-12.3402
-13.1032
-13.9574
-14.9051
-15.9474
-17.0838
-18.312
-19.6269
-21.0201
-22.4791
-23.9867
-25.5201
-27.0509
-28.5451
-29.9637
-31.2641
-32.4022
-33.3347
-34.0212
-34.426
-34.5207
-34.2885
-33.7226
-32.821
-31.5929
-30.0545
-28.2289
-26.1449
-23.8377
-21.3487
-18.7265
-16.0261
-13.307
-10.6268
-8.03672
-5.57893
-3.28023
-1.15449
0.793042
2.56525
4.171
5.62137
6.92883
8.10579
9.16395
10.114
10.9656
11.7272
12.4067
13.0109
13.5461
14.0182
14.4323
14.7935
15.1062
15.3748
15.6033
15.7953
15.9543
16.0836
16.186
16.2645
16.3215
16.3593
16.3802
16.386
16.3785
16.3592
16.3295
16.2904
16.2431
16.1882
16.1265
16.0585
15.9846
15.9054
15.8211
15.7321
15.639
15.5421
15.4421
15.3396
15.2353
15.1298
15.0241
14.9188
14.8148
14.713
14.6142
14.5194
14.4294
14.3451
14.2674
14.1973
14.1355
14.083
14.0405
14.0087
13.9883
13.9797
13.9835
13.9998
14.0287
14.0701
14.1238
14.1894
14.2662
14.3534
14.4502
14.5554
14.6681
14.7869
14.9108
15.0385
15.1689
15.3009
15.4335
15.5658
15.6969
15.8261
15.9527
16.0761
16.1958
16.3111
16.4214
16.5264
16.6253
16.7175
16.8025
16.8797
16.9484
17.008
17.058
17.0981
17.1278
17.147
17.1558
17.1543
17.1432
17.123
17.0948
17.0598
17.0195
16.9757
16.9303
16.8854
16.8432
16.8058
16.7755
16.7541
16.7431
16.7438
16.7567
16.7821
16.8196
16.8685
16.9275
16.9945
17.0672
17.1422
17.2161
17.285
17.3451
17.3926
17.4232
17.4329
17.4127
17.361
-7.93149
-8.04821
-8.21584
-8.40226
-8.60318
-8.83429
-9.1092
-9.43954
-9.836
-10.3083
-10.8651
-11.5141
-12.2621
-13.1152
-14.0784
-15.1558
-16.35
-17.662
-19.09
-20.6291
-22.2701
-23.9987
-25.7943
-27.6293
-29.4685
-31.2695
-32.9831
-34.5561
-35.9342
-37.0652
-37.9019
-38.4037
-38.543
-38.3091
-37.6964
-36.7097
-35.3632
-33.6767
-31.6749
-29.3869
-26.8466
-24.0954
-21.1841
-18.1752
-15.1415
-12.1546
-9.27861
-6.56342
-4.04346
-1.73575
0.357035
2.24199
3.93302
5.4471
6.80179
8.01377
9.09807
10.0679
10.9348
11.7086
12.3979
13.0105
13.5531
14.0317
14.4519
14.8187
15.1369
15.4106
15.6437
15.8401
16.0029
16.1355
16.2407
16.3211
16.3793
16.4176
16.438
16.4427
16.4332
16.4112
16.3782
16.3353
16.2837
16.2244
16.1579
16.0852
16.0065
15.9225
15.8335
15.7399
15.642
15.5405
15.4357
15.3283
15.2189
15.1083
14.9971
14.8862
14.7764
14.6686
14.5637
14.4627
14.3664
14.276
14.1922
14.1162
14.0488
13.991
13.9435
13.9073
13.883
13.8712
13.8724
13.8868
13.9146
13.9557
14.0099
14.0766
14.1553
14.245
14.3449
14.4537
14.5703
14.6933
14.8216
14.9538
15.0886
15.225
15.3618
15.4982
15.6331
15.766
15.8961
16.0228
16.1456
16.264
16.3773
16.4852
16.5871
16.6823
16.7704
16.8506
16.9224
16.9852
17.0384
17.0816
17.1144
17.1367
17.1484
17.1498
17.1413
17.1237
17.0978
17.065
17.0268
16.9849
16.9413
16.8981
16.8575
16.8219
16.7931
16.7731
16.7633
16.7648
16.778
16.8029
16.8391
16.8857
16.9412
17.0036
17.0705
17.1388
17.205
17.2655
17.3165
17.3542
17.3745
17.3736
17.3434
17.2834
-7.57868
-7.71371
-7.8611
-8.02898
-8.22062
-8.44871
-8.7261
-9.06467
-9.476
-9.97121
-10.5608
-11.2547
-12.0618
-12.9905
-14.048
-15.2404
-16.5724
-18.0461
-19.6609
-21.4122
-23.2901
-25.2782
-27.3522
-29.4787
-31.6144
-33.7064
-35.6943
-37.513
-39.0979
-40.3889
-41.3349
-41.8955
-42.048
-41.7907
-41.1223
-40.0562
-38.6117
-36.8117
-34.6813
-32.2469
-29.5377
-26.5901
-23.4533
-20.1931
-16.8873
-13.6191
-10.4704
-7.50548
-4.76887
-2.28275
-0.0493747
1.94301
3.71417
5.28707
6.68463
7.92782
9.03503
10.0219
10.9016
11.6854
12.3829
13.0021
13.5505
14.0344
14.4595
14.8311
15.1539
15.4321
15.6698
15.8705
16.0375
16.1739
16.2825
16.3659
16.4264
16.4664
16.4877
16.4925
16.4823
16.4588
16.4235
16.3777
16.3225
16.259
16.1882
16.1106
16.027
15.9379
15.8438
15.745
15.6421
15.5354
15.4255
15.313
15.1983
15.0823
14.9655
14.8489
14.7332
14.6192
14.5081
14.4007
14.298
14.2011
14.111
14.0287
13.9553
13.8918
13.8391
13.7981
13.7696
13.7543
13.7527
13.7651
13.7917
13.8325
13.8872
13.9553
14.0362
14.1288
14.2322
14.3451
14.4662
14.594
14.7273
14.8646
15.0046
15.146
15.2877
15.4287
15.568
15.705
15.839
15.9694
16.0956
16.2173
16.334
16.4451
16.5502
16.6487
16.74
16.8236
16.8988
16.965
17.0217
17.0684
17.1046
17.1303
17.1452
17.1497
17.1442
17.1292
17.1059
17.0754
17.0393
16.9993
16.9575
16.9159
16.8769
16.8427
16.8152
16.7963
16.7874
16.7893
16.8024
16.8265
16.8611
16.905
16.9567
17.0143
17.0753
17.1368
17.1955
17.2478
17.2902
17.3189
17.33
17.3199
17.2814
17.2148
-7.17417
-7.33404
-7.45212
-7.59214
-7.76558
-7.98131
-8.25135
-8.58745
-9.00185
-9.50699
-10.1152
-10.8383
-11.6875
-12.6733
-13.8054
-15.0916
-16.5384
-18.1494
-19.9247
-21.8598
-23.9437
-26.1574
-28.4721
-30.8474
-33.2311
-35.5597
-37.7618
-39.7626
-41.49
-42.8805
-43.8834
-44.4642
-44.6097
-44.3248
-43.6172
-42.5042
-41.0062
-39.1488
-36.9569
-34.4531
-31.6595
-28.6037
-25.3268
-21.8906
-18.3766
-14.8827
-11.5064
-8.32952
-5.40802
-2.76909
-0.415019
1.66943
3.50913
5.13237
6.56671
7.83687
8.96401
9.96581
10.8569
11.6496
12.354
12.9791
13.5325
14.0209
14.4503
14.826
15.153
15.4355
15.6775
15.8826
16.054
16.1947
16.3074
16.3946
16.4584
16.5012
16.5247
16.5309
16.5214
16.4977
16.4614
16.4138
16.3561
16.2894
16.2147
16.1329
16.0446
15.9504
15.8511
15.747
15.6387
15.5266
15.4113
15.2933
15.1731
15.0514
14.9289
14.8063
14.6845
14.5643
14.4467
14.3328
14.2234
14.1198
14.0231
13.9344
13.8547
13.7852
13.727
13.6809
13.6479
13.6288
13.6242
13.6345
13.6598
13.7003
13.7556
13.8253
13.9085
14.0044
14.1117
14.2291
14.3553
14.4887
14.6277
14.7708
14.9166
15.0637
15.2109
15.3571
15.5014
15.643
15.7813
15.9157
16.0458
16.1712
16.2913
16.4059
16.5144
16.6164
16.7112
16.7984
16.8772
16.9472
17.0076
17.0581
17.0981
17.1274
17.1459
17.1538
17.1514
17.1395
17.1189
17.0909
17.057
17.0191
16.979
16.939
16.9014
16.8683
16.8419
16.8238
16.8153
16.8173
16.8299
16.8528
16.8853
16.9262
16.9739
17.0265
17.0816
17.1364
17.1877
17.2322
17.2664
17.2868
17.2897
17.2716
17.2262
17.1544
-6.70717
-6.83208
-6.92134
-7.03486
-7.18604
-7.38327
-7.63768
-7.96129
-8.36723
-8.86939
-9.48184
-10.2184
-11.0923
-12.1161
-13.3012
-14.6572
-16.1917
-17.9089
-19.8093
-21.8874
-24.1303
-26.5157
-29.0098
-31.5659
-34.1244
-36.6141
-38.9568
-41.0729
-42.8881
-44.3396
-45.3798
-45.9793
-46.1317
-45.8385
-45.1132
-43.9782
-42.46
-40.5873
-38.3848
-35.8713
-33.061
-29.9701
-26.6291
-23.0936
-19.4493
-15.8038
-12.2696
-8.94296
-5.89032
-3.14365
-0.705252
1.44307
3.33033
4.98886
6.44959
7.73974
8.88225
9.89602
10.7966
11.5967
12.3073
12.9376
13.4954
13.9878
14.4211
14.8007
15.1316
15.4182
15.6645
15.8741
16.0501
16.1955
16.3129
16.4046
16.4728
16.5194
16.5463
16.5552
16.5476
16.5252
16.4893
16.4412
16.3821
16.3133
16.2356
16.1501
16.0576
15.9588
15.8543
15.7449
15.6311
15.5134
15.3923
15.2685
15.1424
15.0147
14.8861
14.7572
14.629
14.5022
14.3779
14.2571
14.1408
14.0302
13.9265
13.8309
13.7446
13.6688
13.6046
13.5532
13.5155
13.4924
13.4845
13.4925
13.5166
13.5568
13.6128
13.6841
13.7701
13.8695
13.9813
14.1039
14.2358
14.3753
14.5208
14.6706
14.823
14.9767
15.1302
15.2824
15.4323
15.5792
15.7224
15.8613
15.9956
16.1249
16.2489
16.3672
16.4793
16.5849
16.6835
16.7745
16.8573
16.9312
16.9957
17.0502
17.0943
17.1276
17.15
17.1617
17.1629
17.1543
17.1367
17.1115
17.0801
17.0442
17.006
16.9675
16.9312
16.8991
16.8734
16.8557
16.8473
16.8489
16.8605
16.8817
16.9117
16.9493
16.9928
17.0402
17.0893
17.1374
17.1816
17.2186
17.2452
17.258
17.2535
17.2285
17.1773
17.1013
-6.16891
-6.20947
-6.26615
-6.35665
-6.48414
-6.65744
-6.88797
-7.18874
-7.5741
-8.05937
-8.66018
-9.39199
-10.2696
-11.3069
-12.5161
-13.9078
-15.4895
-17.2655
-19.2352
-21.3915
-23.7191
-26.1927
-28.7747
-31.4143
-34.0484
-36.6031
-38.999
-41.1569
-43.0043
-44.4808
-45.5409
-46.158
-46.3272
-46.0494
-45.3432
-44.232
-42.7456
-40.9139
-38.7608
-36.3007
-33.5392
-30.4824
-27.1516
-23.5989
-19.9128
-16.2099
-12.6133
-9.22879
-6.12787
-3.34389
-0.877764
1.29119
3.1944
4.86596
6.33784
7.63778
8.78891
9.81022
10.7173
11.5231
12.2386
12.8731
13.4349
13.931
14.3678
14.7511
15.0859
15.3766
15.6272
15.8414
16.0223
16.1727
16.2951
16.3919
16.465
16.5164
16.5477
16.5604
16.5562
16.5363
16.5022
16.455
16.3961
16.3264
16.2471
16.1591
16.0633
15.9607
15.8519
15.7376
15.6186
15.4955
15.3687
15.239
15.107
14.9732
14.8383
14.703
14.5683
14.4348
14.3037
14.176
14.0527
13.935
13.8243
13.7218
13.6288
13.5466
13.4765
13.4196
13.3771
13.3499
13.3389
13.3446
13.3673
13.4072
13.4639
13.5371
13.6259