/*--------------------------------*- C++ -*----------------------------------*\
  =========                 |
  \\      /  F ield         | OpenFOAM: The Open Source CFD Toolbox
   \\    /   O peration     | Website:  https://openfoam.org
    \\  /    A nd           | Version:  9
     \\/     M anipulation  |
\*---------------------------------------------------------------------------*/
FoamFile
{
    format      ascii;
    class       surfaceScalarField;
    location    "0.11";
    object      phi;
}
// * * * * * * * * * * * * * * * * * * * * * * * * * * * * * * * * * * * * * //

dimensions      [0 3 -1 0 0 0 0];

internalField   nonuniform List<scalar> 
24170
(
3.13586e-06
5.25488e-08
3.0495e-06
8.63608e-08
2.97329e-06
7.62101e-08
2.90336e-06
6.99307e-08
2.83702e-06
6.6331e-08
2.77849e-06
5.85352e-08
2.72819e-06
5.02995e-08
2.68511e-06
4.30792e-08
2.64786e-06
3.72501e-08
2.61516e-06
3.27017e-08
2.58593e-06
2.92291e-08
2.55925e-06
2.66807e-08
2.5343e-06
2.49507e-08
2.51031e-06
2.39868e-08
2.48656e-06
2.37517e-08
2.46208e-06
2.448e-08
2.43642e-06
2.56628e-08
3.11744e-08
2.40524e-06
3.45221e-06
1.75851e-08
3.4547e-06
8.38718e-08
3.4483e-06
8.26113e-08
3.4368e-06
8.1428e-08
3.42226e-06
8.08715e-08
3.40427e-06
7.65256e-08
3.38391e-06
7.06607e-08
3.36199e-06
6.4998e-08
3.3393e-06
5.994e-08
3.31644e-06
5.55664e-08
3.29376e-06
5.1908e-08
3.27144e-06
4.90014e-08
3.24951e-06
4.68779e-08
3.22789e-06
4.56037e-08
3.20645e-06
4.51919e-08
3.18482e-06
4.61108e-08
3.16271e-06
4.77732e-08
5.43765e-08
3.13951e-06
3.66434e-06
1.57625e-08
3.67751e-06
7.07022e-08
3.68452e-06
7.56001e-08
3.68847e-06
7.74745e-08
3.68977e-06
7.95755e-08
3.68801e-06
7.82828e-08
3.68376e-06
7.49157e-08
3.67755e-06
7.12061e-08
3.66978e-06
6.77095e-08
3.66076e-06
6.45871e-08
3.65071e-06
6.19521e-08
3.6398e-06
5.99208e-08
3.62807e-06
5.85986e-08
3.61556e-06
5.81215e-08
3.60215e-06
5.86011e-08
3.58778e-06
6.04808e-08
3.5719e-06
6.36467e-08
7.00285e-08
3.55625e-06
3.92449e-06
1.66634e-08
3.93555e-06
5.96444e-08
3.94189e-06
6.92558e-08
3.94685e-06
7.25142e-08
3.95071e-06
7.57138e-08
3.95291e-06
7.60801e-08
3.95359e-06
7.42385e-08
3.95301e-06
7.17923e-08
3.9513e-06
6.9411e-08
3.94859e-06
6.72962e-08
3.94496e-06
6.55894e-08
3.94044e-06
6.44413e-08
3.93504e-06
6.39984e-08
3.92873e-06
6.44332e-08
3.9214e-06
6.59256e-08
3.91303e-06
6.88557e-08
3.90328e-06
7.33968e-08
8.05607e-08
3.89274e-06
4.20774e-06
1.6048e-08
4.21575e-06
5.16339e-08
4.22101e-06
6.39969e-08
4.22541e-06
6.8115e-08
4.2295e-06
7.16255e-08
4.23269e-06
7.2893e-08
4.23484e-06
7.20828e-08
4.23608e-06
7.05574e-08
4.23647e-06
6.90214e-08
4.23606e-06
6.77049e-08
4.23488e-06
6.67657e-08
4.23295e-06
6.6376e-08
4.23024e-06
6.67081e-08
4.22672e-06
6.79546e-08
4.22231e-06
7.03304e-08
4.217e-06
7.41718e-08
4.21062e-06
7.97739e-08
8.78381e-08
4.20334e-06
4.51037e-06
1.47676e-08
4.51657e-06
4.5433e-08
4.52151e-06
5.90525e-08
4.52564e-06
6.39865e-08
4.5296e-06
6.76635e-08
4.53298e-06
6.9514e-08
4.53558e-06
6.94882e-08
4.53744e-06
6.86991e-08
4.53861e-06
6.78493e-08
4.53911e-06
6.7198e-08
4.53896e-06
6.69166e-08
4.53815e-06
6.71896e-08
4.53665e-06
6.82033e-08
4.53445e-06
7.0158e-08
4.5315e-06
7.32792e-08
4.52781e-06
7.78683e-08
4.52334e-06
8.42367e-08
9.29183e-08
4.51826e-06
4.83402e-06
1.3467e-08
4.83926e-06
4.01906e-08
4.84415e-06
5.41657e-08
4.8482e-06
5.99359e-08
4.85203e-06
6.38325e-08
4.85542e-06
6.61248e-08
4.85817e-06
6.67425e-08
4.86028e-06
6.65805e-08
4.86182e-06
6.63185e-08
4.86277e-06
6.62438e-08
4.86315e-06
6.65395e-08
4.86294e-06
6.7395e-08
4.86214e-06
6.90013e-08
4.86074e-06
7.15566e-08
4.85875e-06
7.52786e-08
4.85618e-06
8.04301e-08
4.85314e-06
8.72834e-08
9.62492e-08
4.84981e-06
5.1808e-06
1.22473e-08
5.18538e-06
3.56126e-08
5.19013e-06
4.94107e-08
5.19416e-06
5.59058e-08
5.19793e-06
6.00631e-08
5.20134e-06
6.27181e-08
5.20419e-06
6.38903e-08
5.20648e-06
6.429e-08
5.20825e-06
6.45535e-08
5.2095e-06
6.49914e-08
5.21024e-06
6.57967e-08
5.21048e-06
6.71584e-08
5.21022e-06
6.92642e-08
5.20947e-06
7.23016e-08
5.20828e-06
7.6467e-08
5.20674e-06
8.19776e-08
5.20498e-06
8.9043e-08
9.79652e-08
5.20326e-06
5.55251e-06
1.10789e-08
5.55652e-06
3.16006e-08
5.56105e-06
4.48824e-08
5.56506e-06
5.18896e-08
5.56882e-06
5.63042e-08
5.57228e-06
5.9263e-08
5.57525e-06
6.0917e-08
5.57771e-06
6.18266e-08
5.5797e-06
6.25672e-08
5.58123e-06
6.34623e-08
5.58231e-06
6.47125e-08
5.58297e-06
6.6501e-08
5.58323e-06
6.9005e-08
5.58314e-06
7.2394e-08
5.58277e-06
7.68336e-08
5.58226e-06
8.24906e-08
5.5818e-06
8.95042e-08
9.8079e-08
5.58168e-06
5.95089e-06
9.9603e-09
5.95442e-06
2.80709e-08
5.95869e-06
4.06164e-08
5.96268e-06
4.7898e-08
5.96645e-06
5.25341e-08
5.96997e-06
5.57425e-08
5.97309e-06
5.78025e-08
5.97575e-06
5.91639e-08
5.97799e-06
6.033e-08
5.97983e-06
6.16239e-08
5.98129e-06
6.32485e-08
5.98241e-06
6.53761e-08
5.98325e-06
6.81672e-08
5.98388e-06
7.17666e-08
5.98441e-06
7.6304e-08
5.98501e-06
8.18941e-08
5.9859e-06
8.86084e-08
9.65693e-08
5.98741e-06
6.37787e-06
8.90536e-09
6.381e-06
2.49386e-08
6.385e-06
3.6612e-08
6.38896e-06
4.39443e-08
6.39275e-06
4.87406e-08
6.39635e-06
5.21434e-08
6.39963e-06
5.4527e-08
6.40252e-06
5.62689e-08
6.40505e-06
5.77982e-08
6.40725e-06
5.94225e-08
6.40916e-06
6.13403e-08
6.41083e-06
6.37085e-08
6.41233e-06
6.66651e-08
6.41377e-06
7.03263e-08
6.41529e-06
7.47837e-08
6.41708e-06
8.01026e-08
6.4194e-06
8.62957e-08
9.34218e-08
6.42254e-06
5.74168e-06
8.06204e-09
5.74407e-06
2.25477e-08
5.74726e-06
3.3419e-08
5.75057e-06
4.06352e-08
5.75381e-06
4.55043e-08
5.75692e-06
4.90273e-08
5.75983e-06
5.16174e-08
5.76249e-06
5.36158e-08
5.76489e-06
5.53942e-08
5.76708e-06
5.72366e-08
5.76909e-06
5.93307e-08
5.77098e-06
6.18182e-08
5.77282e-06
6.48155e-08
5.77474e-06
6.8413e-08
5.77685e-06
7.26709e-08
5.77934e-06
7.76176e-08
5.78241e-06
8.32267e-08
8.95163e-08
5.78631e-06
6.99906e-06
7.16077e-09
7.00158e-06
2.0022e-08
7.00504e-06
2.99571e-08
7.00878e-06
3.69042e-08
7.01252e-06
4.17598e-08
7.01619e-06
4.53524e-08
7.01971e-06
4.81026e-08
7.02301e-06
5.03162e-08
7.0261e-06
5.23043e-08
7.02902e-06
5.43173e-08
7.03182e-06
5.65252e-08
7.03459e-06
5.90487e-08
7.03743e-06
6.19781e-08
7.04047e-06
6.53744e-08
7.04387e-06
6.92652e-08
7.04785e-06
7.36442e-08
7.05262e-06
7.84513e-08
8.36763e-08
7.05846e-06
8.5318e-06
6.20693e-09
8.53445e-06
1.73739e-08
8.53818e-06
2.62301e-08
8.54236e-06
3.27231e-08
8.54668e-06
3.74366e-08
8.55102e-06
4.10115e-08
8.55528e-06
4.38389e-08
8.55941e-06
4.61873e-08
8.56341e-06
4.83063e-08
8.56733e-06
5.04029e-08
8.57123e-06
5.26204e-08
8.57523e-06
5.50534e-08
8.57944e-06
5.77631e-08
8.58404e-06
6.07799e-08
8.5892e-06
6.41014e-08
8.59515e-06
6.76929e-08
8.60213e-06
7.14714e-08
7.54132e-08
8.61039e-06
1.04002e-05
5.20321e-09
1.0403e-05
1.45962e-08
1.0407e-05
2.22156e-08
1.04117e-05
2.80396e-08
1.04167e-05
3.2434e-08
1.04219e-05
3.58564e-08
1.04271e-05
3.86336e-08
1.04323e-05
4.09892e-08
1.04375e-05
4.31125e-08
1.04427e-05
4.51594e-08
1.04481e-05
4.7238e-08
1.04537e-05
4.94132e-08
1.04598e-05
5.17166e-08
1.04664e-05
5.41511e-08
1.04738e-05
5.6691e-08
1.04822e-05
5.92844e-08
1.04918e-05
6.18412e-08
6.4338e-08
1.05029e-05
1.26779e-05
4.14147e-09
1.26808e-05
1.16408e-08
1.26852e-05
1.78403e-08
1.26905e-05
2.27525e-08
1.26963e-05
2.66002e-08
1.27025e-05
2.96804e-08
1.27089e-05
3.22312e-08
1.27155e-05
3.4419e-08
1.27222e-05
3.63737e-08
1.27292e-05
3.81969e-08
1.27364e-05
3.99563e-08
1.27442e-05
4.16855e-08
1.27525e-05
4.33905e-08
1.27616e-05
4.5054e-08
1.27716e-05
4.66373e-08
1.27828e-05
4.80854e-08
1.27954e-05
4.9317e-08
5.03198e-08
1.28094e-05
1.54543e-05
2.98996e-09
1.54576e-05
8.40027e-09
1.54625e-05
1.29473e-08
1.54685e-05
1.66703e-08
1.54754e-05
1.96988e-08
1.54829e-05
2.2198e-08
1.54909e-05
2.43058e-08
1.54992e-05
2.61197e-08
1.55078e-05
2.77093e-08
1.55169e-05
2.91238e-08
1.55265e-05
3.039e-08
1.55366e-05
3.15128e-08
1.55475e-05
3.24793e-08
1.55593e-05
3.32619e-08
1.55722e-05
3.38215e-08
1.55861e-05
3.41123e-08
1.56014e-05
3.40752e-08
3.37139e-08
1.5618e-05
1.88389e-05
1.67861e-09
1.88427e-05
4.6743e-09
1.88484e-05
7.24495e-09
1.88556e-05
9.45203e-09
1.88639e-05
1.13585e-08
1.88731e-05
1.30174e-08
1.8883e-05
1.44616e-08
1.88934e-05
1.57096e-08
1.89043e-05
1.67705e-08
1.89158e-05
1.76441e-08
1.89279e-05
1.83206e-08
1.89406e-05
1.87813e-08
1.89541e-05
1.90012e-08
1.89684e-05
1.89514e-08
1.89836e-05
1.86024e-08
1.89998e-05
1.79222e-08
1.9017e-05
1.68816e-08
1.54966e-08
1.90352e-05
2.29649e-05
6.87538e-11
2.29695e-05
9.03443e-11
2.29766e-05
2.00035e-10
2.29855e-05
4.98392e-10
2.29959e-05
9.83031e-10
2.30073e-05
1.58714e-09
2.30196e-05
2.21876e-09
2.30325e-05
2.81228e-09
2.30459e-05
3.31556e-09
2.30599e-05
3.67844e-09
2.30744e-05
3.85619e-09
2.30893e-05
3.81018e-09
2.31048e-05
3.51219e-09
2.31208e-05
2.92645e-09
2.31374e-05
2.05994e-09
2.31545e-05
8.43906e-10
2.3172e-05
-6.78905e-10
-2.50493e-09
2.319e-05
1.6812e-05
-1.22308e-09
1.68156e-05
-3.55742e-09
1.68212e-05
-5.39134e-09
1.68283e-05
-6.5403e-09
1.68363e-05
-7.0378e-09
1.6845e-05
-7.11042e-09
1.68542e-05
-6.96403e-09
1.68637e-05
-6.71677e-09
1.68735e-05
-6.45772e-09
1.68834e-05
-6.27345e-09
1.68935e-05
-6.23544e-09
1.69037e-05
-6.39456e-09
1.6914e-05
-6.78621e-09
1.69244e-05
-7.43581e-09
1.69348e-05
-8.35774e-09
1.69452e-05
-9.56237e-09
1.69556e-05
-1.10449e-08
-1.27852e-08
1.69659e-05
1.46358e-05
-2.47359e-09
1.46394e-05
-7.11428e-09
1.46448e-05
-1.0842e-08
1.46516e-05
-1.32649e-08
1.4659e-05
-1.45167e-08
1.4667e-05
-1.5067e-08
1.46752e-05
-1.52246e-08
1.46837e-05
-1.51355e-08
1.46921e-05
-1.4931e-08
1.47006e-05
-1.474e-08
1.4709e-05
-1.46548e-08
1.47174e-05
-1.47324e-08
1.47256e-05
-1.50106e-08
1.47337e-05
-1.55152e-08
1.47416e-05
-1.626e-08
1.47493e-05
-1.72486e-08
1.47567e-05
-1.84757e-08
-1.99215e-08
1.47638e-05
1.27413e-05
-3.65759e-09
1.27449e-05
-1.06898e-08
1.27504e-05
-1.63573e-08
1.27569e-05
-1.98013e-08
1.2764e-05
-2.15419e-08
1.27713e-05
-2.24103e-08
1.27788e-05
-2.27253e-08
1.27863e-05
-2.26291e-08
1.27937e-05
-2.23226e-08
1.28009e-05
-2.19864e-08
1.2808e-05
-2.17251e-08
1.28149e-05
-2.15962e-08
1.28215e-05
-2.16391e-08
1.28279e-05
-2.18803e-08
1.28339e-05
-2.23326e-08
1.28397e-05
-2.29974e-08
1.28451e-05
-2.38671e-08
-2.49238e-08
1.28501e-05
1.10919e-05
-4.65664e-09
1.10956e-05
-1.43508e-08
1.11014e-05
-2.21411e-08
1.11078e-05
-2.62221e-08
1.11144e-05
-2.8157e-08
1.11212e-05
-2.92107e-08
1.1128e-05
-2.95538e-08
1.11347e-05
-2.93186e-08
1.11412e-05
-2.88045e-08
1.11475e-05
-2.82372e-08
1.11535e-05
-2.77218e-08
1.11592e-05
-2.73144e-08
1.11646e-05
-2.70573e-08
1.11697e-05
-2.69777e-08
1.11744e-05
-2.70869e-08
1.11788e-05
-2.73847e-08
1.11828e-05
-2.78628e-08
-2.85051e-08
1.11864e-05
9.65592e-06
-5.36056e-09
9.65974e-06
-1.81748e-08
9.66579e-06
-2.81878e-08
9.67205e-06
-3.24835e-08
9.67835e-06
-3.44533e-08
9.68471e-06
-3.55708e-08
9.69093e-06
-3.5775e-08
9.69689e-06
-3.52792e-08
9.70258e-06
-3.44963e-08
9.708e-06
-3.36589e-08
9.71313e-06
-3.28537e-08
9.71796e-06
-3.21357e-08
9.72245e-06
-3.15512e-08
9.7266e-06
-3.11282e-08
9.73039e-06
-3.08769e-08
9.7338e-06
-3.07964e-08
9.73682e-06
-3.08776e-08
-3.11042e-08
9.73942e-06
8.40556e-06
-5.56738e-09
8.41012e-06
-2.27326e-08
8.416e-06
-3.40696e-08
8.42175e-06
-3.82355e-08
8.42776e-06
-4.04652e-08
8.43384e-06
-4.16491e-08
8.43963e-06
-4.1563e-08
8.44504e-06
-4.06904e-08
8.45012e-06
-3.95719e-08
8.45487e-06
-3.84136e-08
8.45929e-06
-3.72759e-08
8.46337e-06
-3.62129e-08
8.46709e-06
-3.52734e-08
8.47045e-06
-3.44852e-08
8.47343e-06
-3.38584e-08
8.47603e-06
-3.33928e-08
8.47823e-06
-3.30803e-08
-3.29076e-08
8.48003e-06
7.31548e-06
-3.76278e-09
7.32239e-06
-2.96436e-08
7.328e-06
-3.96808e-08
7.33319e-06
-4.34271e-08
7.33897e-06
-4.62434e-08
7.34487e-06
-4.75498e-08
7.35038e-06
-4.70705e-08
7.3554e-06
-4.5714e-08
7.35997e-06
-4.41412e-08
7.36409e-06
-4.25329e-08
7.36776e-06
-4.09472e-08
7.371e-06
-3.9447e-08
7.37381e-06
-3.80817e-08
7.3762e-06
-3.68763e-08
7.37818e-06
-3.5839e-08
7.37975e-06
-3.49697e-08
7.38093e-06
-3.42583e-08
-3.36904e-08
7.38172e-06
6.3628e-06
3.49958e-09
6.37363e-06
-4.04709e-08
6.38081e-06
-4.68578e-08
6.3871e-06
-4.97188e-08
6.39332e-06
-5.24679e-08
6.39902e-06
-5.32451e-08
6.40385e-06
-5.18966e-08
6.40791e-06
-4.9778e-08
6.41129e-06
-4.75247e-08
6.41402e-06
-4.52584e-08
6.41612e-06
-4.30497e-08
6.41765e-06
-4.09769e-08
6.41866e-06
-3.90877e-08
6.41918e-06
-3.73999e-08
6.41926e-06
-3.59171e-08
6.41893e-06
-3.46365e-08
6.41821e-06
-3.35444e-08
-3.26135e-08
6.41713e-06
5.53454e-06
1.4424e-08
5.5473e-06
-5.32355e-08
5.55766e-06
-5.7211e-08
5.56671e-06
-5.87664e-08
5.57383e-06
-5.95943e-08
5.57861e-06
-5.80265e-08
5.58112e-06
-5.44063e-08
5.58195e-06
-5.06016e-08
5.58149e-06
-4.70695e-08
5.58001e-06
-4.378e-08
5.57771e-06
-4.07449e-08
5.57474e-06
-3.80043e-08
5.57122e-06
-3.55726e-08
5.56726e-06
-3.34397e-08
5.56293e-06
-3.15888e-08
5.55831e-06
-3.00139e-08
5.55347e-06
-2.87022e-08
-2.75916e-08
5.54845e-06
4.85545e-06
-1.34159e-08
4.85877e-06
-5.65556e-08
4.86e-06
-5.84409e-08
4.85797e-06
-5.67406e-08
4.85499e-06
-5.66175e-08
4.84902e-06
-5.20495e-08
4.84039e-06
-4.57754e-08
4.82965e-06
-3.98684e-08
4.81749e-06
-3.49074e-08
4.80451e-06
-3.07998e-08
4.79116e-06
-2.73943e-08
4.77774e-06
-2.45798e-08
4.76442e-06
-2.22611e-08
4.75134e-06
-2.03547e-08
4.73854e-06
-1.87942e-08
4.7261e-06
-1.75666e-08
4.71409e-06
-1.66949e-08
-1.66617e-08
4.70316e-06
4.18926e-06
4.1327e-06
4.07426e-06
4.01752e-06
3.96091e-06
3.90886e-06
3.86308e-06
3.82321e-06
3.7883e-06
3.75751e-06
3.73011e-06
3.70553e-06
3.68327e-06
3.66292e-06
3.64412e-06
3.62655e-06
3.60986e-06
3.5932e-06
3.87302e-08
-3.87302e-08
1.49995e-07
-1.11265e-07
2.94098e-07
-1.44103e-07
4.42472e-07
-1.48375e-07
5.78814e-07
-1.36341e-07
6.93151e-07
-1.14337e-07
7.78979e-07
-8.58283e-08
8.31932e-07
-5.29525e-08
8.49377e-07
-1.74457e-08
8.28487e-07
2.08907e-08
7.6445e-07
6.40368e-08
6.60348e-07
1.04102e-07
5.21062e-07
1.39286e-07
3.55014e-07
1.66048e-07
1.73961e-07
1.81053e-07
-9.47268e-09
1.83434e-07
-1.87389e-07
1.77916e-07
-3.59711e-07
1.72322e-07
-5.31768e-07
1.72057e-07
-7.10749e-07
1.78981e-07
-9.02237e-07
1.91488e-07
-1.10848e-06
2.06244e-07
-1.32845e-06
2.19969e-07
-1.55872e-06
2.30271e-07
-1.79451e-06
2.35792e-07
-2.03054e-06
2.36026e-07
-2.26159e-06
2.31056e-07
-2.48289e-06
2.21295e-07
-2.69017e-06
2.07279e-07
-2.8797e-06
1.89535e-07
-3.04825e-06
1.68548e-07
-3.19308e-06
1.44826e-07
-3.31194e-06
1.18866e-07
-3.40312e-06
9.11782e-08
-3.4654e-06
6.22778e-08
-3.49802e-06
3.26261e-08
-3.50161e-06
3.59023e-09
-3.4795e-06
-2.21182e-08
-3.43255e-06
-4.6942e-08
-3.36221e-06
-7.03459e-08
-3.26977e-06
-9.24341e-08
-3.15659e-06
-1.13183e-07
-3.02409e-06
-1.32506e-07
-2.87379e-06
-1.50297e-07
-2.70734e-06
-1.66453e-07
-2.52645e-06
-1.8089e-07
-2.3329e-06
-1.9355e-07
-2.12849e-06
-2.04403e-07
-1.91505e-06
-2.13444e-07
-1.69435e-06
-2.20696e-07
-1.46815e-06
-2.26208e-07
-1.2381e-06
-2.30045e-07
-1.00581e-06
-2.32287e-07
-7.7279e-07
-2.33023e-07
-5.40427e-07
-2.32363e-07
-3.09952e-07
-2.30475e-07
-8.22119e-08
-2.2774e-07
1.42216e-07
-2.24428e-07
3.62613e-07
-2.20397e-07
5.78184e-07
-2.15571e-07
7.88246e-07
-2.10061e-07
9.92228e-07
-2.03983e-07
1.18965e-06
-1.97421e-07
1.38009e-06
-1.90442e-07
1.56319e-06
-1.83095e-07
1.73861e-06
-1.75419e-07
1.90605e-06
-1.67444e-07
2.06524e-06
-1.59192e-07
2.21593e-06
-1.50687e-07
2.35788e-06
-1.41951e-07
2.49089e-06
-1.33013e-07
2.6148e-06
-1.23912e-07
2.7295e-06
-1.14694e-07
2.83492e-06
-1.05421e-07
2.93108e-06
-9.61597e-08
3.01806e-06
-8.69849e-08
3.09604e-06
-7.79706e-08
3.16522e-06
-6.91852e-08
3.22591e-06
-6.06852e-08
3.27842e-06
-5.25113e-08
3.3231e-06
-4.4684e-08
3.3603e-06
-3.71968e-08
3.39032e-06
-3.0018e-08
3.41342e-06
-2.3101e-08
3.42979e-06
-1.63711e-08
3.43963e-06
-9.8408e-09
3.44352e-06
-3.89079e-09
3.44186e-06
1.6557e-09
3.43619e-06
5.67307e-09
3.42739e-06
8.80219e-09
3.41607e-06
1.1319e-08
3.40271e-06
1.33615e-08
3.3877e-06
1.50048e-08
3.37142e-06
1.62856e-08
3.3542e-06
1.72188e-08
3.33639e-06
1.78114e-08
3.31832e-06
1.80666e-08
3.30033e-06
1.79869e-08
3.28276e-06
1.75753e-08
3.26592e-06
1.68369e-08
3.25014e-06
1.57795e-08
3.23573e-06
1.44125e-08
3.22298e-06
1.27513e-08
3.21216e-06
1.08182e-08
3.20352e-06
8.63632e-09
3.19729e-06
6.23376e-09
3.1937e-06
3.59292e-09
3.19319e-06
5.12129e-10
3.19646e-06
-3.27945e-09
3.20415e-06
-7.68314e-09
3.21662e-06
-1.24714e-08
3.23409e-06
-1.74751e-08
3.25666e-06
-2.25671e-08
3.2843e-06
-2.76419e-08
3.31691e-06
-3.26101e-08
3.35431e-06
-3.73958e-08
3.39625e-06
-4.1936e-08
3.44243e-06
-4.6182e-08
3.49253e-06
-5.01008e-08
3.5462e-06
-5.3674e-08
3.6031e-06
-5.68978e-08
3.66288e-06
-5.97797e-08
3.72522e-06
-6.23369e-08
3.78981e-06
-6.45925e-08
3.85638e-06
-6.6573e-08
3.92469e-06
-6.83063e-08
3.99451e-06
-6.98193e-08
4.06564e-06
-7.11372e-08
4.13793e-06
-7.22831e-08
4.21121e-06
-7.32773e-08
4.28534e-06
-7.41385e-08
4.36023e-06
-7.48827e-08
4.43575e-06
-7.55248e-08
4.51183e-06
-7.60772e-08
4.58838e-06
-7.65512e-08
4.66533e-06
-7.69551e-08
4.74263e-06
-7.72953e-08
4.8202e-06
-7.75741e-08
4.89799e-06
-7.77904e-08
4.97593e-06
-7.79385e-08
5.05394e-06
-7.80086e-08
5.13193e-06
-7.79877e-08
5.20979e-06
-7.78601e-08
5.2874e-06
-7.76063e-08
5.36459e-06
-7.71988e-08
5.44119e-06
-7.65969e-08
5.51693e-06
-7.57439e-08
5.59151e-06
-7.45789e-08
5.66457e-06
-7.30524e-08
5.73562e-06
-7.10497e-08
5.80375e-06
-6.81381e-08
5.86677e-06
-6.30127e-08
5.91962e-06
-5.28578e-08
5.95397e-06
-3.43491e-08
5.96338e-06
-9.40689e-09
5.94727e-06
1.61059e-08
5.91158e-06
3.56935e-08
5.86069e-06
5.08917e-08
5.79841e-06
6.22829e-08
5.72819e-06
7.02198e-08
5.65329e-06
7.48972e-08
5.57668e-06
7.66122e-08
5.50084e-06
7.58383e-08
5.42771e-06
7.31278e-08
5.35866e-06
6.90499e-08
5.29466e-06
6.40045e-08
5.23642e-06
5.82327e-08
5.18452e-06
5.1904e-08
5.139e-06
4.55204e-08
5.09981e-06
3.91904e-08
5.06695e-06
3.28577e-08
5.03746e-06
2.94946e-08
5.00995e-06
2.75091e-08
4.98082e-06
2.91297e-08
4.93536e-06
4.54617e-08
4.87945e-06
5.59079e-08
4.80213e-06
7.73178e-08
4.67675e-06
1.25377e-07
4.46217e-06
2.14588e-07
3.11299e-07
4.15087e-06
1.9488e-07
-2.3361e-07
3.93105e-07
-3.0949e-07
5.5787e-07
-3.08868e-07
6.89006e-07
-2.79511e-07
7.87092e-07
-2.34427e-07
8.52406e-07
-1.79651e-07
8.85347e-07
-1.18769e-07
8.864e-07
-5.40051e-08
8.5646e-07
1.24943e-08
7.94582e-07
8.27687e-08
7.05352e-07
1.53266e-07
5.85872e-07
2.23582e-07
4.34213e-07
2.90945e-07
2.4969e-07
3.5057e-07
3.31493e-08
3.97594e-07
-2.11897e-07
4.2848e-07
-4.78363e-07
4.44382e-07
-7.581e-07
4.52059e-07
-1.04434e-06
4.58293e-07
-1.33121e-06
4.65851e-07
-1.61365e-06
4.73934e-07
-1.88753e-06
4.80123e-07
-2.14948e-06
4.81921e-07
-2.39672e-06
4.77514e-07
-2.62692e-06
4.6599e-07
-2.83816e-06
4.47266e-07
-3.02896e-06
4.21854e-07
-3.19826e-06
3.90596e-07
-3.34543e-06
3.54444e-07
-3.47022e-06
3.14327e-07
-3.57277e-06
2.71096e-07
-3.65347e-06
2.25528e-07
-3.71294e-06
1.78336e-07
-3.75194e-06
1.3018e-07
-3.77134e-06
8.1678e-08
-3.77208e-06
3.33671e-08
-3.75407e-06
-1.44189e-08
-3.71488e-06
-6.13116e-08
-3.65458e-06
-1.07241e-07
-3.57327e-06
-1.51656e-07
-3.4716e-06
-1.94105e-07
-3.35057e-06
-2.34208e-07
-3.21145e-06
-2.71629e-07
-3.05567e-06
-3.06074e-07
-2.88482e-06
-3.37304e-07
-2.70057e-06
-3.65139e-07
-2.50466e-06
-3.89462e-07
-2.29884e-06
-4.1022e-07
-2.08486e-06
-4.27423e-07
-1.86442e-06
-4.41139e-07
-1.63914e-06
-4.51487e-07
-1.41056e-06
-4.58627e-07
-1.18009e-06
-4.62754e-07
-9.4903e-07
-4.64086e-07
-7.18524e-07
-4.62869e-07
-4.89624e-07
-4.59375e-07
-2.63451e-07
-4.53913e-07
-4.11094e-08
-4.4677e-07
1.76644e-07
-4.38151e-07
3.89272e-07
-4.28199e-07
5.96269e-07
-4.17059e-07
7.97189e-07
-4.04903e-07
9.91643e-07
-3.91875e-07
1.1793e-06
-3.78097e-07
1.35987e-06
-3.63668e-07
1.53312e-06
-3.48667e-07
1.69883e-06
-3.3316e-07
1.85684e-06
-3.17202e-07
2.007e-06
-3.00843e-07
2.14918e-06
-2.84133e-07
2.2833e-06
-2.67126e-07
2.40927e-06
-2.49888e-07
2.52707e-06
-2.32492e-07
2.63668e-06
-2.15029e-07
2.73811e-06
-1.97596e-07
2.83143e-06
-1.80302e-07
2.91672e-06
-1.63256e-07
2.9941e-06
-1.46564e-07
3.06373e-06
-1.30321e-07
3.12583e-06
-1.14612e-07
3.18065e-06
-9.95015e-08
3.22849e-06
-8.50371e-08
3.26972e-06
-7.12511e-08
3.30479e-06
-5.8169e-08
3.33424e-06
-4.58223e-08
3.35867e-06
-3.42719e-08
3.3784e-06
-2.36155e-08
3.39374e-06
-1.36814e-08
3.40405e-06
-4.64047e-09
3.40942e-06
3.42945e-09
3.4101e-06
1.06382e-08
3.40648e-06
1.69803e-08
3.39901e-06
2.24831e-08
3.38814e-06
2.71535e-08
3.37437e-06
3.09857e-08
3.35822e-06
3.39658e-08
3.34021e-06
3.60749e-08
3.3209e-06
3.72925e-08
3.30088e-06
3.75988e-08
3.28074e-06
3.69775e-08
3.2611e-06
3.54174e-08
3.2426e-06
3.29128e-08
3.22589e-06
2.94647e-08
3.21162e-06
2.50819e-08
3.20048e-06
1.97833e-08
3.19313e-06
1.35789e-08
3.19028e-06
6.44154e-09
3.19224e-06
-1.44773e-09
3.19907e-06
-1.01049e-08
3.21073e-06
-1.93477e-08
3.22729e-06
-2.90338e-08
3.24882e-06
-3.89961e-08
3.27532e-06
-4.90702e-08
3.30678e-06
-5.90996e-08
3.34311e-06
-6.89395e-08
3.38417e-06
-7.84605e-08
3.42979e-06
-8.75524e-08
3.47973e-06
-9.61269e-08
3.53375e-06
-1.0412e-07
3.59157e-06
-1.1149e-07
3.65289e-06
-1.18221e-07
3.71742e-06
-1.24313e-07
3.78487e-06
-1.29784e-07
3.85494e-06
-1.34665e-07
3.92736e-06
-1.38993e-07
4.00187e-06
-1.42811e-07
4.07821e-06
-1.46164e-07
4.15617e-06
-1.49097e-07
4.23554e-06
-1.51654e-07
4.31614e-06
-1.53875e-07
4.39781e-06
-1.55803e-07
4.4804e-06
-1.57472e-07
4.56379e-06
-1.58919e-07
4.64789e-06
-1.60175e-07
4.7326e-06
-1.61266e-07
4.81786e-06
-1.62214e-07
4.9036e-06
-1.63036e-07
4.98977e-06
-1.63739e-07
5.0763e-06
-1.64325e-07
5.16315e-06
-1.64783e-07
5.25023e-06
-1.65096e-07
5.33748e-06
-1.65238e-07
5.4248e-06
-1.65175e-07
5.51206e-06
-1.64867e-07
5.59912e-06
-1.64259e-07
5.68581e-06
-1.63283e-07
5.77191e-06
-1.61844e-07
5.85715e-06
-1.5982e-07
5.94113e-06
-1.57033e-07
6.02326e-06
-1.53186e-07
6.10287e-06
-1.47748e-07
6.17974e-06
-1.39882e-07
6.25554e-06
-1.28655e-07
6.33487e-06
-1.13683e-07
6.4209e-06
-9.5431e-08
6.51095e-06
-7.39446e-08
6.59755e-06
-5.09084e-08
6.67528e-06
-2.68375e-08
6.74007e-06
-2.50456e-09
6.78924e-06
2.10449e-08
6.82118e-06
4.29564e-08
6.83495e-06
6.28415e-08
6.83022e-06
8.05709e-08
6.80715e-06
9.62042e-08
6.76626e-06
1.09934e-07
6.70839e-06
1.21877e-07
6.63469e-06
1.31936e-07
6.54675e-06
1.39837e-07
6.44694e-06
1.4533e-07
6.33808e-06
1.4805e-07
6.22349e-06
1.4745e-07
6.10826e-06
1.44724e-07
5.9954e-06
1.40375e-07
5.8871e-06
1.37428e-07
5.78835e-06
1.44205e-07
5.70044e-06
1.4382e-07
5.62679e-06
1.50971e-07
5.56401e-06
1.88154e-07
5.49644e-06
2.82159e-07
4.27798e-07
5.37994e-06
2.03791e-07
-4.374e-07
3.74552e-07
-4.80252e-07
4.94727e-07
-4.29043e-07
5.74258e-07
-3.59043e-07
6.19455e-07
-2.79624e-07
6.33717e-07
-1.93913e-07
6.18912e-07
-1.03965e-07
5.76785e-07
-1.18775e-08
5.06484e-07
8.27955e-08
4.11196e-07
1.78056e-07
2.91062e-07
2.734e-07
1.46373e-07
3.68271e-07
-2.31686e-08
4.60488e-07
-2.18143e-07
5.45545e-07
-4.37829e-07
6.1728e-07
-6.80607e-07
6.71258e-07
-9.42939e-07
7.06714e-07
-1.218e-06
7.27125e-07
-1.497e-06
7.37285e-07
-1.77163e-06
7.4048e-07
-2.03559e-06
7.37903e-07
-2.28487e-06
7.29398e-07
-2.51729e-06
7.14339e-07
-2.732e-06
6.92226e-07
-2.92895e-06
6.62935e-07
-3.10842e-06
6.26744e-07
-3.27079e-06
5.84219e-07
-3.41626e-06
5.36064e-07
-3.54482e-06
4.83009e-07
-3.65624e-06
4.25748e-07
-3.75007e-06
3.64927e-07
-3.8257e-06
3.01158e-07
-3.8824e-06
2.35034e-07
-3.91937e-06
1.67153e-07
-3.93582e-06
9.81218e-08
-3.93099e-06
2.85444e-08
-3.90443e-06
-4.09849e-08
-3.85589e-06
-1.09852e-07
-3.78582e-06
-1.77314e-07
-3.69483e-06
-2.42642e-07
-3.5838e-06
-3.05136e-07
-3.45385e-06
-3.64161e-07
-3.30632e-06
-4.19159e-07
-3.14274e-06
-4.69654e-07
-2.96477e-06
-5.15265e-07
-2.7742e-06
-5.55714e-07
-2.57283e-06
-5.9083e-07
-2.36251e-06
-6.20546e-07
-2.14503e-06
-6.44899e-07
-1.92215e-06
-6.64015e-07
-1.69554e-06
-6.78104e-07
-1.46673e-06
-6.87438e-07
-1.23714e-06
-6.9234e-07
-1.00806e-06
-6.93168e-07
-7.80621e-07
-6.90306e-07
-5.55846e-07
-6.8415e-07
-3.34666e-07
-6.75093e-07
-1.17939e-07
-6.63497e-07
9.35941e-08
-6.49684e-07
2.99351e-07
-6.33956e-07
4.98897e-07
-6.16604e-07
6.91872e-07
-5.97878e-07
8.77993e-07
-5.77996e-07
1.05704e-06
-5.57143e-07
1.22885e-06
-5.35475e-07
1.3933e-06
-5.13118e-07
1.55031e-06
-4.90176e-07
1.69985e-06
-4.66734e-07
1.84187e-06
-4.42869e-07
1.97639e-06
-4.18651e-07
2.10341e-06
-3.9415e-07
2.22297e-06
-3.69443e-07
2.33509e-06
-3.44616e-07
2.43983e-06
-3.19768e-07
2.53724e-06
-2.95005e-07
2.62738e-06
-2.70446e-07
2.71034e-06
-2.46212e-07
2.7862e-06
-2.22425e-07
2.85508e-06
-1.99203e-07
2.91712e-06
-1.76653e-07
2.97249e-06
-1.54868e-07
3.02138e-06
-1.33931e-07
3.06404e-06
-1.13907e-07
3.10073e-06
-9.48558e-08
3.13174e-06
-7.68305e-08
3.15735e-06
-5.98831e-08
3.17777e-06
-4.40346e-08
3.19334e-06
-2.92572e-08
3.20429e-06
-1.55896e-08
3.21081e-06
-3.08649e-09
3.21321e-06
8.23599e-09
3.21184e-06
1.83486e-08
3.2071e-06
2.72252e-08
3.19942e-06
3.4834e-08
3.18927e-06
4.11368e-08
3.17714e-06
4.60911e-08
3.16356e-06
4.96531e-08
3.14907e-06
5.17813e-08
3.13423e-06
5.24396e-08
3.11961e-06
5.16011e-08
3.10578e-06
4.92506e-08
3.0933e-06
4.53872e-08
3.08274e-06
4.00263e-08
3.07462e-06
3.32013e-08
3.06944e-06
2.49639e-08
3.06763e-06
1.53851e-08
3.06952e-06
4.55668e-09
3.07542e-06
-7.34865e-09
3.0855e-06
-2.01858e-08
3.09992e-06
-3.37681e-08
3.1188e-06
-4.79082e-08
3.14221e-06
-6.24061e-08
3.17019e-06
-7.70566e-08
3.20275e-06
-9.16588e-08
3.23984e-06
-1.06023e-07
3.28135e-06
-1.19978e-07
3.32717e-06
-1.33372e-07
3.37713e-06
-1.46084e-07
3.43103e-06
-1.58017e-07
3.48864e-06
-1.69105e-07
3.54973e-06
-1.79311e-07
3.61404e-06
-1.88622e-07
3.6813e-06
-1.97047e-07
3.75125e-06
-2.04611e-07
3.82361e-06
-2.11355e-07
3.89813e-06
-2.17327e-07
3.97455e-06
-2.22583e-07
4.05263e-06
-2.27183e-07
4.13216e-06
-2.31187e-07
4.21295e-06
-2.34658e-07
4.2948e-06
-2.37658e-07
4.37758e-06
-2.40245e-07
4.46113e-06
-2.42477e-07
4.54536e-06
-2.44406e-07
4.63018e-06
-2.46078e-07
4.71549e-06
-2.4753e-07
4.80125e-06
-2.48791e-07
4.88739e-06
-2.49877e-07
4.97385e-06
-2.50792e-07
5.06059e-06
-2.51523e-07
5.14754e-06
-2.52046e-07
5.23463e-06
-2.52321e-07
5.32175e-06
-2.52298e-07
5.4088e-06
-2.51912e-07
5.49562e-06
-2.51083e-07
5.58205e-06
-2.49709e-07
5.66786e-06
-2.47659e-07
5.7528e-06
-2.44761e-07
5.83654e-06
-2.40773e-07
5.9187e-06
-2.35346e-07
5.99895e-06
-2.27993e-07
6.0772e-06
-2.18133e-07
6.15387e-06
-2.05325e-07
6.22969e-06
-1.89507e-07
6.305e-06
-1.70737e-07
6.37983e-06
-1.48778e-07
6.45311e-06
-1.24187e-07
6.52384e-06
-9.75733e-08
6.59087e-06
-6.95343e-08
6.65248e-06
-4.05562e-08
6.70659e-06
-1.11534e-08
6.75113e-06
1.82931e-08
6.78416e-06
4.75464e-08
6.80385e-06
7.65162e-08
6.80857e-06
1.05208e-07
6.79691e-06
1.33537e-07
6.76771e-06
1.61138e-07
6.72033e-06
1.87214e-07
6.65512e-06
2.10545e-07
6.57344e-06
2.29724e-07
6.47768e-06
2.43211e-07
6.37168e-06
2.50731e-07
6.25893e-06
2.53126e-07
6.14385e-06
2.52508e-07
6.03536e-06
2.52688e-07
5.93128e-06
2.47906e-07
5.83195e-06
2.50295e-07
5.7397e-06
2.80402e-07
5.65831e-06
3.63551e-07
5.04848e-07
5.58126e-06
1.34106e-07
-5.71507e-07
2.04463e-07
-5.50608e-07
2.42959e-07
-4.67539e-07
2.5585e-07
-3.71933e-07
2.45859e-07
-2.69633e-07
2.14212e-07
-1.62265e-07
1.61208e-07
-5.09613e-08
8.60853e-08
6.32451e-08
-1.07711e-08
1.79652e-07
-1.29991e-07
2.97276e-07
-2.71486e-07
4.14895e-07
-4.33962e-07
5.30747e-07
-6.15178e-07
6.41703e-07
-8.1236e-07
7.42727e-07
-1.02295e-06
8.27866e-07
-1.24448e-06
8.92789e-07
-1.4744e-06
9.3664e-07
-1.70915e-06
9.61871e-07
-1.94416e-06
9.72294e-07
-2.17489e-06
9.71214e-07
-2.39773e-06
9.60741e-07
-2.61029e-06
9.41953e-07
-2.81127e-06
9.15321e-07
-3.00012e-06
8.81083e-07
-3.17665e-06
8.3946e-07
-3.34064e-06
7.9074e-07
-3.49171e-06
7.35283e-07
-3.62914e-06
6.73493e-07
-3.75193e-06
6.05805e-07
-3.85887e-06
5.32686e-07
-3.9486e-06
4.54654e-07
-4.01974e-06
3.72298e-07
-4.071e-06
2.86292e-07
-4.10124e-06
1.97395e-07
-4.10957e-06
1.06452e-07
-4.09541e-06
1.4388e-08
-4.0585e-06
-7.78985e-08
-3.99898e-06
-1.69375e-07
-3.91731e-06
-2.58983e-07
-3.81426e-06
-3.45692e-07
-3.69087e-06
-4.28523e-07
-3.54845e-06
-5.06581e-07
-3.38854e-06
-5.79074e-07
-3.21286e-06
-6.45337e-07
-3.02327e-06
-7.04849e-07
-2.82175e-06
-7.57238e-07
-2.61028e-06
-8.02295e-07
-2.39087e-06
-8.3996e-07
-2.16544e-06
-8.70324e-07
-1.93586e-06
-8.93602e-07
-1.70384e-06
-9.10123e-07
-1.47098e-06
-9.203e-07
-1.23871e-06
-9.24609e-07
-1.00831e-06
-9.23567e-07
-7.80899e-07
-9.17715e-07
-5.57454e-07
-9.07595e-07
-3.38813e-07
-8.93734e-07
-1.25686e-07
-8.76624e-07
8.13091e-08
-8.56679e-07
2.81668e-07
-8.34316e-07
4.7501e-07
-8.09946e-07
6.61051e-07
-7.83919e-07
8.39592e-07
-7.56537e-07
1.01051e-06
-7.2806e-07
1.17374e-06
-6.98704e-07
1.32927e-06
-6.6865e-07
1.47714e-06
-6.38043e-07
1.61741e-06
-6.07006e-07
1.75018e-06
-5.75638e-07
1.87556e-06
-5.44031e-07
1.99367e-06
-5.12266e-07
2.10466e-06
-4.80426e-07
2.20864e-06
-4.486e-07
2.30575e-06
-4.16882e-07
2.39613e-06
-3.85377e-07
2.47988e-06
-3.54195e-07
2.55712e-06
-3.23455e-07
2.62797e-06
-2.93277e-07
2.69255e-06
-2.63782e-07
2.75098e-06
-2.35083e-07
2.8034e-06
-2.07286e-07
2.84996e-06
-1.8049e-07
2.89083e-06
-1.5478e-07
2.92621e-06
-1.30232e-07
2.95629e-06
-1.06916e-07
2.9813e-06
-8.48883e-08
3.00145e-06
-6.41891e-08
3.01704e-06
-4.48433e-08
3.02834e-06
-2.68968e-08
3.03566e-06
-1.04078e-08
3.03933e-06
4.56969e-09
3.0397e-06
1.79829e-08
3.03715e-06
2.97729e-08
3.0321e-06
3.98782e-08
3.02501e-06
4.8235e-08
3.01632e-06
5.47795e-08
3.00652e-06
5.94513e-08
2.9961e-06
6.21973e-08
2.98557e-06
6.29753e-08
2.97541e-06
6.17585e-08
2.96612e-06
5.85386e-08
2.95818e-06
5.33289e-08
2.95204e-06
4.61668e-08
2.94813e-06
3.71146e-08
2.94683e-06
2.62622e-08
2.94849e-06
1.37266e-08
2.95339e-06
-3.43351e-10
2.9618e-06
-1.57602e-08
2.97393e-06
-3.23202e-08
2.98997e-06
-4.98057e-08
3.01005e-06
-6.79879e-08
3.03427e-06
-8.66282e-08
3.0627e-06
-1.05485e-07
3.09536e-06
-1.24319e-07
3.13224e-06
-1.42904e-07
3.17329e-06
-1.6103e-07
3.21843e-06
-1.78512e-07
3.26754e-06
-1.95193e-07
3.32047e-06
-2.10945e-07
3.37704e-06
-2.25673e-07
3.43704e-06
-2.39313e-07
3.50025e-06
-2.51833e-07
3.56643e-06
-2.63222e-07
3.63531e-06
-2.73498e-07
3.70665e-06
-2.82692e-07
3.78018e-06
-2.90855e-07
3.85564e-06
-2.98046e-07
3.93279e-06
-3.04336e-07
4.01141e-06
-3.098e-07
4.09127e-06
-3.1452e-07
4.17219e-06