/*--------------------------------*- C++ -*----------------------------------*\
  =========                 |
  \\      /  F ield         | OpenFOAM: The Open Source CFD Toolbox
   \\    /   O peration     | Website:  https://openfoam.org
    \\  /    A nd           | Version:  9
     \\/     M anipulation  |
\*---------------------------------------------------------------------------*/
FoamFile
{
    format      ascii;
    class       volVectorField;
    location    "0.11";
    object      U;
}
// * * * * * * * * * * * * * * * * * * * * * * * * * * * * * * * * * * * * * //

dimensions      [0 1 -1 0 0 0 0];

internalField   nonuniform List<vector> 
12225
(
(9.86512 -0.857799 0)
(9.67833 -0.67387 0)
(9.46199 -0.36526 0)
(9.22368 -0.172554 0)
(8.99804 -0.0745499 0)
(8.80068 -0.0268433 0)
(8.63116 -0.00363451 0)
(8.48562 0.00782175 0)
(8.36026 0.0136122 0)
(8.25121 0.0165938 0)
(8.15476 0.0181973 0)
(8.06767 0.0191931 0)
(7.98721 0.02001 0)
(7.911 0.0209147 0)
(7.83649 0.0220913 0)
(7.76219 0.0238085 0)
(7.6811 0.0263483 0)
(7.60793 0.0319766 0)
(10.052 0.269805 0)
(10.116 0.364081 0)
(10.1139 0.271936 0)
(10.0788 0.184419 0)
(10.0371 0.128863 0)
(9.98981 0.0956517 0)
(9.9343 0.0753483 0)
(9.872 0.0624413 0)
(9.80607 0.0538273 0)
(9.73901 0.0477843 0)
(9.67218 0.0434656 0)
(9.60627 0.0404863 0)
(9.54149 0.0386625 0)
(9.47786 0.0379572 0)
(9.41481 0.0383487 0)
(9.35246 0.0404046 0)
(9.28731 0.0430912 0)
(9.22649 0.0528095 0)
(9.99799 0.040642 0)
(10.0218 0.0262551 0)
(10.0515 0.00981434 0)
(10.0683 0.0203894 0)
(10.0744 0.0375086 0)
(10.0735 0.0478456 0)
(10.0655 0.0523354 0)
(10.051 0.0540119 0)
(10.0316 0.0545079 0)
(10.0085 0.0545709 0)
(9.98234 0.0546287 0)
(9.95367 0.0549771 0)
(9.92274 0.0558347 0)
(9.88967 0.0574385 0)
(9.85431 0.059991 0)
(9.81657 0.0641474 0)
(9.77555 0.0697653 0)
(9.7315 0.0805283 0)
(9.99673 0.00543032 0)
(10.0079 0.0259438 0)
(10.0331 0.0413267 0)
(10.0506 0.0527086 0)
(10.0608 0.0593733 0)
(10.0679 0.0615127 0)
(10.0718 0.0616131 0)
(10.072 0.0613707 0)
(10.0689 0.0612717 0)
(10.0632 0.0614158 0)
(10.0551 0.0619094 0)
(10.0447 0.0629104 0)
(10.0321 0.0646073 0)
(10.0172 0.067254 0)
(9.99992 0.0711376 0)
(9.97999 0.0768777 0)
(9.95719 0.0848098 0)
(9.93067 0.0969329 0)
(9.99926 0.00710689 0)
(10.0079 0.0349409 0)
(10.0262 0.0476077 0)
(10.0397 0.0524237 0)
(10.0489 0.0559118 0)
(10.0571 0.0581266 0)
(10.0637 0.0592536 0)
(10.0679 0.060024 0)
(10.0698 0.0608274 0)
(10.0697 0.0618232 0)
(10.0678 0.0631692 0)
(10.0641 0.0650675 0)
(10.0586 0.0677509 0)
(10.0513 0.0715102 0)
(10.0419 0.0766978 0)
(10.0304 0.0838919 0)
(10.0166 0.0936419 0)
(10.0002 0.107236 0)
(10.0002 0.00944015 0)
(10.0075 0.0330547 0)
(10.0216 0.043198 0)
(10.033 0.04742 0)
(10.0415 0.0516023 0)
(10.0493 0.0549539 0)
(10.0561 0.0570238 0)
(10.0612 0.058506 0)
(10.0645 0.0599446 0)
(10.0664 0.0615799 0)
(10.0668 0.0635978 0)
(10.0657 0.0662209 0)
(10.0632 0.0697058 0)
(10.0591 0.0743642 0)
(10.0534 0.0805801 0)
(10.0461 0.0889011 0)
(10.0371 0.0999428 0)
(10.0264 0.114767 0)
(10.0003 0.00911076 0)
(10.0064 0.0284409 0)
(10.018 0.038627 0)
(10.0284 0.0439625 0)
(10.0363 0.048697 0)
(10.0435 0.052443 0)
(10.05 0.0549342 0)
(10.0551 0.0568509 0)
(10.0589 0.0587505 0)
(10.0614 0.0608868 0)
(10.0628 0.0634515 0)
(10.063 0.0666757 0)
(10.062 0.0708288 0)
(10.0598 0.0762306 0)
(10.0563 0.0832715 0)
(10.0515 0.0924637 0)
(10.0457 0.104405 0)
(10.039 0.119997 0)
(10.0003 0.00818858 0)
(10.0054 0.0247919 0)
(10.0151 0.0352275 0)
(10.0246 0.0412313 0)
(10.0321 0.0460331 0)
(10.0388 0.049884 0)
(10.0449 0.0526921 0)
(10.05 0.054997 0)
(10.0539 0.057301 0)
(10.0568 0.0598688 0)
(10.0587 0.062903 0)
(10.0596 0.06664 0)
(10.0596 0.0713531 0)
(10.0587 0.0773581 0)
(10.0568 0.0850305 0)
(10.0541 0.0948343 0)
(10.0509 0.107297 0)
(10.0474 0.123157 0)
(10.0003 0.00736758 0)
(10.0046 0.0219776 0)
(10.0127 0.0321668 0)
(10.0212 0.0384329 0)
(10.0284 0.0432479 0)
(10.0347 0.0472137 0)
(10.0405 0.0503298 0)
(10.0455 0.0529944 0)
(10.0495 0.0556572 0)
(10.0526 0.0585986 0)
(10.055 0.0620331 0)
(10.0566 0.0661962 0)
(10.0574 0.0713547 0)
(10.0575 0.077809 0)
(10.0571 0.0859031 0)
(10.0562 0.0960381 0)
(10.0553 0.108644 0)
(10.0546 0.124303 0)
(10.0003 0.00664164 0)
(10.0039 0.0195516 0)
(10.0108 0.029193 0)
(10.0183 0.0355576 0)
(10.025 0.0404254 0)
(10.0311 0.0445016 0)
(10.0366 0.0478708 0)
(10.0415 0.050841 0)
(10.0457 0.0538111 0)
(10.0491 0.057067 0)
(10.0519 0.0608281 0)
(10.054 0.0653216 0)
(10.0557 0.0707985 0)
(10.0569 0.0775326 0)
(10.0578 0.0858235 0)
(10.0587 0.0959993 0)
(10.0599 0.108385 0)
(10.0617 0.123411 0)
(10.0003 0.0059612 0)
(10.0033 0.0173856 0)
(10.0091 0.02637 0)
(10.0158 0.0327103 0)
(10.0221 0.037608 0)
(10.0279 0.0417473 0)
(10.0332 0.0452951 0)
(10.0381 0.0485066 0)
(10.0424 0.0517258 0)
(10.0461 0.0552292 0)
(10.0493 0.0592325 0)
(10.0521 0.063948 0)
(10.0546 0.0696021 0)
(10.0568 0.0764327 0)
(10.0591 0.0846857 0)
(10.0616 0.0946123 0)
(10.0648 0.106432 0)
(10.0689 0.120446 0)
(10.0003 0.00535868 0)
(10.0029 0.0155827 0)
(10.0079 0.0239313 0)
(10.0139 0.030138 0)
(10.0198 0.0350098 0)
(10.0253 0.0391605 0)
(10.0306 0.0428087 0)
(10.0355 0.0461781 0)
(10.0399 0.0495639 0)
(10.0439 0.053223 0)
(10.0475 0.0573607 0)
(10.0509 0.06217 0)
(10.0541 0.0678484 0)
(10.0573 0.0745943 0)
(10.0608 0.0826006 0)
(10.0647 0.0920477 0)
(10.0695 0.103068 0)
(10.0754 0.115859 0)
(10.0003 0.00480044 0)
(10.0025 0.0139512 0)
(10.0069 0.0216381 0)
(10.0123 0.0276096 0)
(10.0178 0.0324007 0)
(10.0232 0.0365229 0)
(10.0283 0.0402145 0)
(10.0332 0.0436791 0)
(10.0378 0.0471671 0)
(10.042 0.0509091 0)
(10.0461 0.0550935 0)
(10.0501 0.0598901 0)
(10.054 0.0654638 0)
(10.0582 0.0719714 0)
(10.0627 0.0795529 0)
(10.0679 0.0883238 0)
(10.0741 0.0983422 0)
(10.0816 0.109725 0)
(10.0002 0.00421665 0)
(10.0022 0.0122512 0)
(10.006 0.01917 0)
(10.0108 0.0247723 0)
(10.016 0.0293882 0)
(10.0211 0.033411 0)
(10.0261 0.0370736 0)
(10.031 0.0405592 0)
(10.0358 0.0440726 0)
(10.0405 0.0478083 0)
(10.045 0.0519283 0)
(10.0496 0.0565717 0)
(10.0544 0.0618637 0)
(10.0595 0.0679127 0)
(10.0652 0.0748018 0)
(10.0716 0.0825817 0)
(10.0791 0.0912411 0)
(10.088 0.100828 0)
(10.0002 0.00360304 0)
(10.0019 0.0104709 0)
(10.0052 0.0165176 0)
(10.0095 0.0216018 0)
(10.0143 0.0259127 0)
(10.0192 0.0297293 0)
(10.0242 0.0332544 0)
(10.0292 0.0366453 0)
(10.0342 0.0400604 0)
(10.0392 0.0436503 0)
(10.0443 0.0475406 0)
(10.0496 0.051832 0)
(10.0552 0.0566045 0)
(10.0612 0.061915 0)
(10.0679 0.0677906 0)
(10.0755 0.0742238 0)
(10.0841 0.0811477 0)
(10.094 0.0885601 0)
(10.0002 0.00295367 0)
(10.0017 0.00859077 0)
(10.0045 0.0136503 0)
(10.0084 0.0180469 0)
(10.0129 0.0218842 0)
(10.0177 0.0253429 0)
(10.0227 0.0285772 0)
(10.0278 0.0317085 0)
(10.0331 0.034848 0)
(10.0385 0.0380975 0)
(10.0441 0.041538 0)
(10.05 0.0452268 0)
(10.0563 0.049197 0)
(10.0631 0.0534569 0)
(10.0706 0.0579853 0)
(10.079 0.0627303 0)
(10.0882 0.0675906 0)
(10.0987 0.072533 0)
(10.0002 0.00225482 0)
(10.0015 0.0065624 0)
(10.0041 0.0104925 0)
(10.0077 0.0140074 0)
(10.012 0.0171638 0)
(10.0167 0.0200656 0)
(10.0217 0.0228089 0)
(10.027 0.0254696 0)
(10.0324 0.0281107 0)
(10.0382 0.0307835 0)
(10.0442 0.0335221 0)
(10.0506 0.0363399 0)
(10.0574 0.0392282 0)
(10.0647 0.0421564 0)
(10.0726 0.0450702 0)
(10.0813 0.0478933 0)
(10.0907 0.0505145 0)
(10.101 0.0528892 0)
(10.0002 0.00147409 0)
(10.0014 0.00428647 0)
(10.0039 0.00689435 0)
(10.0073 0.00929944 0)
(10.0116 0.0115329 0)
(10.0162 0.0136391 0)
(10.0213 0.0156554 0)
(10.0267 0.0176072 0)
(10.0324 0.0195094 0)
(10.0383 0.0213656 0)
(10.0446 0.023166 0)
(10.0511 0.0248859 0)
(10.0581 0.0264852 0)
(10.0654 0.0279087 0)
(10.0733 0.029087 0)
(10.0816 0.0299379 0)
(10.0904 0.0303627 0)
(10.0998 0.0303181 0)
(10.0002 0.000553276 0)
(10.0014 0.00159195 0)
(10.0039 0.002598 0)
(10.0074 0.00361508 0)
(10.0117 0.00466266 0)
(10.0165 0.00573131 0)
(10.0217 0.00679771 0)
(10.0272 0.00783623 0)
(10.0329 0.00881821 0)
(10.0389 0.00970801 0)
(10.0451 0.0104617 0)
(10.0515 0.0110284 0)
(10.0581 0.0113505 0)
(10.065 0.0113656 0)
(10.0721 0.0110061 0)
(10.0794 0.0102035 0)
(10.0869 0.00888143 0)
(10.0947 0.00700161 0)
(10.0002 -0.000365717 0)
(10.0015 -0.00109891 0)
(10.0042 -0.0016919 0)
(10.0081 -0.00204256 0)
(10.0126 -0.00213771 0)
(10.0177 -0.00204327 0)
(10.023 -0.00183923 0)
(10.0286 -0.00159116 0)
(10.0343 -0.0013603 0)
(10.0402 -0.00121157 0)
(10.0462 -0.00121058 0)
(10.0522 -0.00142039 0)
(10.0583 -0.00190206 0)
(10.0645 -0.00271526 0)
(10.0707 -0.00391848 0)
(10.0769 -0.00556607 0)
(10.083 -0.00771181 0)
(10.0892 -0.0103839 0)
(10.0002 -0.00117492 0)
(10.0017 -0.00347946 0)
(10.0047 -0.00546817 0)
(10.009 -0.0069304 0)
(10.014 -0.00788308 0)
(10.0193 -0.00848842 0)
(10.0249 -0.0088786 0)
(10.0306 -0.00913631 0)
(10.0364 -0.00934434 0)
(10.0422 -0.00959432 0)
(10.048 -0.00996943 0)
(10.0537 -0.010539 0)
(10.0593 -0.0113638 0)
(10.0649 -0.0125004 0)
(10.0704 -0.0140002 0)
(10.0757 -0.0159105 0)
(10.0809 -0.0182695 0)
(10.0859 -0.0210988 0)
(10.0002 -0.00194379 0)
(10.0019 -0.00582279 0)
(10.0054 -0.00921433 0)
(10.0103 -0.0116633 0)
(10.0158 -0.0132724 0)
(10.0215 -0.0143869 0)
(10.0273 -0.0152009 0)
(10.0332 -0.0157986 0)
(10.0391 -0.0162778 0)
(10.0449 -0.0167516 0)
(10.0505 -0.0173143 0)
(10.056 -0.0180384 0)
(10.0613 -0.0189844 0)
(10.0664 -0.0202059 0)
(10.0713 -0.0217483 0)
(10.0759 -0.0236495 0)
(10.0803 -0.0259393 0)
(10.0844 -0.0286349 0)
(10.0002 -0.00265489 0)
(10.0021 -0.00816084 0)
(10.0062 -0.0129769 0)
(10.0119 -0.0163092 0)
(10.0181 -0.0184584 0)
(10.0242 -0.0199486 0)
(10.0303 -0.0210031 0)
(10.0364 -0.021744 0)
(10.0424 -0.0223244 0)
(10.0482 -0.0228784 0)
(10.0537 -0.0234938 0)
(10.059 -0.024235 0)
(10.064 -0.0251593 0)
(10.0687 -0.0263171 0)
(10.0732 -0.0277489 0)
(10.0773 -0.0294857 0)
(10.0811 -0.0315508 0)
(10.0845 -0.0339574 0)
(10.0001 -0.00329793 0)
(10.0021 -0.0107368 0)
(10.007 -0.0167091 0)
(10.0138 -0.0205131 0)
(10.0207 -0.0231648 0)
(10.0273 -0.0251387 0)
(10.0337 -0.0264229 0)
(10.0401 -0.0271846 0)
(10.0461 -0.0277177 0)
(10.0519 -0.0282155 0)
(10.0573 -0.0287626 0)
(10.0625 -0.0294123 0)
(10.0673 -0.0302165 0)
(10.0718 -0.0312203 0)
(10.0759 -0.0324574 0)
(10.0797 -0.0339522 0)
(10.083 -0.0357217 0)
(10.0859 -0.0377739 0)
(9.99999 -0.00357621 0)
(10.0021 -0.0144861 0)
(10.0082 -0.0214544 0)
(10.0159 -0.0245784 0)
(10.0232 -0.0270239 0)
(10.0302 -0.029355 0)
(10.0373 -0.0309914 0)
(10.044 -0.0319264 0)
(10.0503 -0.0325097 0)
(10.0561 -0.0329808 0)
(10.0616 -0.0334425 0)
(10.0666 -0.0339606 0)
(10.0713 -0.034594 0)
(10.0755 -0.0353887 0)
(10.0793 -0.0363762 0)
(10.0826 -0.0375779 0)
(10.0855 -0.039007 0)
(10.0879 -0.0406696 0)
(9.99915 -0.00165303 0)
(10.0006 -0.0181368 0)
(10.0093 -0.028491 0)
(10.0185 -0.0313598 0)
(10.0261 -0.0324122 0)
(10.0336 -0.0335987 0)
(10.0413 -0.034606 0)
(10.0487 -0.0353165 0)
(10.0554 -0.0358585 0)
(10.0613 -0.0363089 0)
(10.0666 -0.0367109 0)
(10.0713 -0.0371224 0)
(10.0754 -0.0376033 0)
(10.079 -0.0381993 0)
(10.082 -0.038942 0)
(10.0844 -0.039854 0)
(10.0863 -0.0409469 0)
(10.0876 -0.0422258 0)
(9.99564 0.0042548 0)
(9.99423 -0.0122489 0)
(10.0082 -0.030282 0)
(10.0225 -0.0412514 0)
(10.0326 -0.0457652 0)
(10.0412 -0.0463389 0)
(10.0493 -0.0452881 0)
(10.0564 -0.0440724 0)
(10.0623 -0.0431277 0)
(10.0671 -0.0424179 0)
(10.0708 -0.0418782 0)
(10.0737 -0.0415017 0)
(10.0757 -0.0412988 0)
(10.0769 -0.0412764 0)
(10.0773 -0.0414395 0)
(10.0771 -0.0417944 0)
(10.0763 -0.0423372 0)
(10.0749 -0.0430449 0)
(9.99042 -0.0120188 0)
(9.9898 0.00837035 0)
(10.0093 0.0236988 0)
(10.0304 0.0150319 0)
(10.0459 -0.00368911 0)
(10.0564 -0.0182941 0)
(10.0629 -0.0268865 0)
(10.0658 -0.0317887 0)
(10.066 -0.0346606 0)
(10.0641 -0.036292 0)
(10.0606 -0.0371598 0)
(10.0558 -0.0376034 0)
(10.0499 -0.0378445 0)
(10.0431 -0.0380185 0)
(10.0356 -0.0382138 0)
(10.0275 -0.0384956 0)
(10.019 -0.0389218 0)
(10.01 -0.0394651 0)
(10.0211 -0.210916 0)
(10.064 -0.314574 0)
(10.0747 -0.252983 0)
(10.0677 -0.179941 0)
(10.0598 -0.130888 0)
(10.0509 -0.099535 0)
(10.0367 -0.0787577 0)
(10.0166 -0.0648292 0)
(9.99248 -0.0553198 0)
(9.96612 -0.0485589 0)
(9.93869 -0.0435503 0)
(9.91085 -0.0397366 0)
(9.88309 -0.036782 0)
(9.8557 -0.0344707 0)
(9.82886 -0.0326676 0)
(9.80269 -0.0313185 0)
(9.77735 -0.0303983 0)
(9.75286 -0.030228 0)
(9.94568 0.659372 0)
(9.88637 0.546744 0)
(9.78056 0.32002 0)
(9.63727 0.169313 0)
(9.49133 0.0855662 0)
(9.35963 0.0410558 0)
(9.24396 0.0173952 0)
(9.14259 0.00450856 0)
(9.05383 -0.00272689 0)
(8.9759 -0.00687877 0)
(8.90697 -0.00930325 0)
(8.8454 -0.0107576 0)
(8.78988 -0.0116686 0)
(8.73935 -0.0122786 0)
(8.69291 -0.0127327 0)
(8.64982 -0.013145 0)
(8.60918 -0.0136046 0)
(8.57059 -0.0144553 0)
(-0.00269781 0.0579272 -4.37723e-20)
(0.0767813 -0.0474565 4.07909e-20)
(0.195896 -0.125624 0)
(0.328073 -0.16062 0)
(0.455416 -0.16621 0)
(0.567573 -0.153873 -3.4769e-20)
(0.657774 -0.130173 0)
(0.721102 -0.0987778 0)
(0.754303 -0.0616184 0)
(0.755772 -0.0194122 0)
(0.718837 0.025462 3.28368e-20)
(0.644516 0.069669 0)
(0.53576 0.109358 0)
(0.39859 0.140093 0)
(0.241956 0.158238 0)
(0.0762129 0.162194 3.53051e-20)
(-0.0876679 0.153768 0)
(-0.244995 0.140594 0)
(-0.398908 0.132343 0)
(-0.555247 0.134076 0)
(-0.720374 0.145444 0)
(-0.898292 0.162825 0)
(-1.08972 0.181764 0)
(-1.29261 0.198423 2.57352e-20)
(-1.50311 0.210186 -2.48399e-20)
(-1.71654 0.215722 2.40243e-20)
(-1.92805 0.214765 2.32785e-20)
(-2.13305 0.207739 0)
(-2.32744 0.195374 0)
(-2.50763 0.178451 -2.12999e-20)
(-2.67045 0.157721 -2.06635e-20)
(-2.81322 0.133936 0)
(-2.9337 0.107903 0)
(-3.03012 0.080518 -1.85688e-20)
(-3.10117 0.0527089 0)
(-3.14579 0.0255445 0)
(-3.16304 1.34016e-05 1.58648e-20)
(-3.15533 -0.0233693 0)
(-3.12555 -0.0445759 1.34698e-20)
(-3.07401 -0.0642434 2.42133e-20)
(-3.00184 -0.0826039 0)
(-2.91021 -0.0996977 0)
(-2.80033 -0.11549 0)
(-2.67351 -0.12992 0)
(-2.53117 -0.142922 0)
(-2.3748 -0.154442 3.201e-21)
(-2.20597 -0.164444 -1.0153e-21)
(-2.0263 -0.172911 -5.40947e-21)
(-1.8374 -0.179835 0)
(-1.6409 -0.185225 1.46872e-20)
(-1.43842 -0.189098 0)
(-1.23149 -0.191478 -2.45471e-20)
(-1.0216 -0.19239 -2.96712e-20)
(-0.810139 -0.191845 0)
(-0.598433 -0.189848 0)
(-0.387643 -0.186403 0)
(-0.178677 -0.181573 -5.00972e-20)
(0.027823 -0.175706 0)
(0.231374 -0.169325 0)
(0.431242 -0.16268 0)
(0.62665 -0.155871 0)
(0.817011 -0.148968 0)
(1.00183 -0.142017 0)
(1.1807 -0.135046 0)
(1.35323 -0.128067 0)
(1.51911 -0.121084 5.30737e-20)
(1.67804 -0.114095 0)
(1.82973 -0.107093 0)
(1.97393 -0.100073 -5.14859e-20)
(2.1104 -0.0930368 -5.08843e-20)
(2.23892 -0.0859921 0)
(2.35932 -0.0789605 4.96446e-20)
(2.47144 -0.0719756 -4.90244e-20)
(2.57518 -0.065083 0)
(2.6705 -0.0583372 4.78165e-20)
(2.75743 -0.0517966 0)
(2.83606 -0.0455164 0)
(2.90657 -0.0395425 -4.61442e-20)
(2.96917 -0.0339058 0)
(3.02413 -0.0286192 4.51432e-20)
(3.07176 -0.0236746 0)
(3.11236 -0.0190379 -4.42365e-20)
(3.14623 -0.0146497 -4.3818e-20)
(3.17362 -0.0104296 -4.34224e-20)
(3.19473 -0.00629694 -8.60995e-20)
(3.20972 -0.00225727 8.53977e-20)
(3.21886 0.00143348 0)
(3.22231 0.00414793 0)
(3.22152 0.00591421 0)
(3.21746 0.00700247 8.27914e-20)
(3.21081 0.00764896 8.21805e-20)
(3.20205 0.00800673 -8.15826e-20)
(3.19158 0.00815737 0)
(3.17974 0.00814573 8.04199e-20)
(3.16686 0.00799803 7.98532e-20)
(3.15327 0.00773129 7.92953e-20)
(3.13927 0.00735874 0)
(3.12519 0.00689259 0)
(3.11133 0.00634477 0)
(3.09802 0.00572797 7.71457e-20)
(3.08556 0.00505597 0)
(3.07426 0.00434142 0)
(3.06439 0.00359706 -7.56279e-20)
(3.05625 0.002835 0)
(3.05007 0.00206036 0)
(3.04612 0.00126456 -7.42235e-20)
(3.04458 0.000386434 0)
(3.04564 -0.000742832 0)
(3.05001 -0.00229596 7.29246e-20)
(3.05842 -0.00422994 7.25042e-20)
(3.07131 -0.00639322 0)
(3.08898 -0.00866477 -7.16991e-20)
(3.11158 -0.0109603 0)
(3.13916 -0.013216 7.09487e-20)
(3.17168 -0.0153819 0)
(3.209 -0.0174176 7.02614e-20)
(3.25094 -0.0192919 6.9943e-20)
(3.29726 -0.0209831 0)
(3.34765 -0.0224787 0)
(3.40182 -0.0237758 0)
(3.45943 -0.0248793 0)
(3.52016 -0.0258008 0)
(3.5837 -0.0265565 0)
(3.64976 -0.0271648 0)
(3.71807 -0.0276448 6.79526e-20)
(3.78838 -0.0280147 -6.77528e-20)
(3.86048 -0.0282909 0)
(3.93417 -0.0284874 0)
(4.00929 -0.0286159 0)
(4.08568 -0.0286859 0)
(4.16321 -0.0287051 -1.33546e-19)
(4.24177 -0.0286797 0)
(4.32125 -0.028615 1.32701e-19)
(4.40157 -0.0285154 -1.3225e-19)
(4.48266 -0.0283846 0)
(4.56444 -0.0282257 0)
(4.64685 -0.0280409 0)
(4.72985 -0.0278315 1.30165e-19)
(4.81337 -0.0275973 1.29557e-19)
(4.89736 -0.027337 0)
(4.98175 -0.0270481 1.28213e-19)
(5.06646 -0.0267276 1.27472e-19)
(5.1514 -0.0263723 -1.26682e-19)
(5.23646 -0.0259783 0)
(5.3215 -0.025537 0)
(5.40636 -0.0250329 -1.24009e-19)
(5.49082 -0.0244441 0)
(5.57459 -0.0237582 0)
(5.65734 -0.0229913 0)
(5.73868 -0.0221383 0)
(5.81804 -0.0209667 1.18684e-19)
(5.89413 -0.0186014 1.17587e-19)
(5.96377 -0.0131417 0)
(6.02012 -0.002706 1.15708e-19)
(6.05292 0.0115979 0)
(6.05763 0.0249365 0)
(6.03999 0.0351273 1.1367e-19)
(6.00482 0.041783 0)
(5.95611 0.0450997 1.12815e-19)
(5.89749 0.0454349 0)
(5.83236 0.0431881 0)
(5.76393 0.0388455 1.12166e-19)
(5.69499 0.0329859 0)
(5.62787 0.0261811 1.12126e-19)
(5.56419 0.019005 0)
(5.50517 0.0119153 0)
(5.45165 0.00521544 0)
(5.40442 -0.0010374 -1.1306e-19)
(5.36374 -0.00617554 0)
(5.32939 -0.00902119 1.13998e-19)
(5.30254 -0.0103439 0)
(5.27988 -0.00475009 0)
(5.26136 0.00857622 0)
(5.24166 0.032331 0)
(5.21225 0.0813364 0)
(5.17905 0.0564495 0)
(5.11715 -0.0150873 0)
(5.01966 -0.021859 -2.415e-19)
(4.8822 0.0126343 0)
(4.54655 0.0521184 0)
(0.119369 -0.210659 1.18505e-19)
(0.264624 -0.360019 -1.0057e-19)
(0.421899 -0.411569 0)
(0.558089 -0.403523 5.89266e-20)
(0.661567 -0.358619 0)
(0.734077 -0.291123 2.78365e-20)
(0.77787 -0.209741 -5.65575e-20)
(0.793528 -0.119737 -5.6832e-20)
(0.781114 -0.0240741 0)
(0.739824 0.0747524 -5.73499e-20)
(0.674024 0.173789 -2.81616e-20)
(0.582649 0.269689 0)
(0.463633 0.357335 0)
(0.315134 0.429891 0)
(0.1367 0.481132 0)
(-0.0707362 0.506923 -2.96897e-20)
(-0.302749 0.511422 0)
(-0.550527 0.507691 5.21701e-20)
(-0.806365 0.508681 0)
(-1.06437 0.519264 0)
(-1.32007 0.536535 -4.20084e-20)
(-1.56993 0.554432 0)
(-1.81091 0.567326 3.79866e-20)
(-2.04031 0.571454 -1.80623e-20)
(-2.25577 0.565072 1.74999e-20)
(-2.45526 0.548032 -1.70466e-20)
(-2.63719 0.521218 -1.66643e-20)
(-2.80035 0.486009 0)
(-2.94398 0.443902 0)
(-3.06766 0.396308 1.56523e-20)
(-3.17135 0.344496 -1.62991e-20)
(-3.25528 0.289594 0)
(-3.31987 0.232626 0)
(-3.36574 0.174557 1.38773e-20)
(-3.39355 0.116337 0)
(-3.40417 0.0589584 0)
(-3.39844 0.00337688 -1.17847e-20)
(-3.37509 -0.0498396 0)
(-3.33202 -0.100284 1.09696e-20)
(-3.26974 -0.147864 -1.76382e-20)
(-3.18866 -0.192455 0)
(-3.08949 -0.233867 0)
(-2.97324 -0.271888 -2.31176e-20)
(-2.8411 -0.306325 -1.78474e-20)
(-2.69443 -0.337024 -1.23676e-20)
(-2.53468 -0.363884 4.48008e-21)
(-2.36337 -0.386868 6.98024e-22)
(-2.18208 -0.405997 8.80468e-21)
(-1.99238 -0.421351 -1.12294e-20)
(-1.79582 -0.433063 -9.849e-21)
(-1.59391 -0.441306 0)
(-1.38807 -0.446287 1.62148e-20)
(-1.17963 -0.448222 -1.72882e-20)
(-0.969822 -0.447333 0)
(-0.759762 -0.44383 0)
(-0.550471 -0.437898 0)
(-0.342934 -0.42972 3.29728e-20)
(-0.138091 -0.419612 0)
(0.0631519 -0.40802 -7.33596e-20)
(0.260239 -0.395309 0)
(0.452684 -0.381706 -7.83112e-20)
(0.640031 -0.367405 0)
(0.821886 -0.35256 8.184e-20)
(0.997909 -0.337293 0)
(1.16781 -0.321702 -8.41684e-20)
(1.33134 -0.305861 4.19626e-20)
(1.48827 -0.289831 0)
(1.63843 -0.273659 8.58506e-20)
(1.78165 -0.257387 4.3381e-20)
(1.91779 -0.241056 4.3349e-20)
(2.04674 -0.224714 0)
(2.16842 -0.208414 4.25959e-20)
(2.28275 -0.192225 4.29111e-20)
(2.3897 -0.176222 0)
(2.48925 -0.160495 -4.2427e-20)
(2.58141 -0.145134 8.40152e-20)
(2.66625 -0.130232 0)
(2.74384 -0.11587 4.15582e-20)
(2.81429 -0.102119 0)
(2.87777 -0.0890288 -1.22684e-19)
(2.93446 -0.0766295 0)
(2.98462 -0.0649247 1.20891e-19)
(3.02854 -0.0538954 4.00277e-20)
(3.06658 -0.0435074 -3.96714e-20)
(3.09919 -0.0337236 -7.87889e-20)
(3.12687 -0.024554 7.82384e-20)
(3.15012 -0.0161523 0)
(3.1695 -0.0088715 0)
(3.18435 -0.00268658 0)
(3.1945 0.00257373 -2.27964e-19)
(3.20014 0.0070364 -7.54045e-20)
(3.20157 0.0108035 7.48308e-20)
(3.19919 0.0139417 0)
(3.19342 0.0164875 7.37494e-20)
(3.18469 0.0184614 -7.32075e-20)
(3.17347 0.0198747 -7.26956e-20)
(3.16025 0.0207337 0)
(3.14554 0.0210426 0)
(3.12986 0.0208057 0)
(3.11378 0.020029 -7.07633e-20)
(3.09787 0.0187215 0)
(3.08272 0.0168946 1.39699e-19)
(3.06896 0.0145659 2.0821e-19)
(3.05721 0.0117591 -1.37914e-19)
(3.0481 0.00849799 0)
(3.04229 0.00480787 -6.80572e-20)
(3.04044 0.000688298 0)
(3.04321 -0.00394889 -1.34391e-19)
(3.05067 -0.00912208 6.66534e-20)
(3.06277 -0.0147269 6.61842e-20)
(3.07957 -0.020599 0)
(3.10117 -0.0265898 1.96305e-19)
(3.12762 -0.0325744 -1.30003e-19)
(3.15893 -0.038444 -6.47454e-20)
(3.19508 -0.0441045 0)
(3.23597 -0.0494771 -6.40859e-20)
(3.28147 -0.0544983 -1.91094e-19)
(3.33139 -0.0591217 0)
(3.38551 -0.0633184 -1.2626e-19)
(3.4436 -0.0670758 -1.25814e-19)
(3.5054 -0.0703964 -1.25411e-19)
(3.57063 -0.0732949 0)
(3.63901 -0.0757952 0)
(3.71028 -0.0779274 0)
(3.78418 -0.079725 6.19111e-20)
(3.86044 -0.0812221 6.21106e-20)
(3.93884 -0.0824523 0)
(4.01916 -0.0834473 1.2342e-19)
(4.10119 -0.0842362 1.23188e-19)
(4.18475 -0.0848456 0)
(4.26969 -0.0852995 1.23011e-19)
(4.35587 -0.0856197 2.44915e-19)
(4.44316 -0.0858254 -1.22473e-19)
(4.53146 -0.0859336 -1.21617e-19)
(4.62069 -0.0859588 0)
(4.71078 -0.0859127 0)
(4.80167 -0.0858037 0)
(4.89331 -0.0856367 -1.20688e-19)
(4.98564 -0.0854122 1.19743e-19)
(5.07862 -0.0851267 2.38973e-19)
(5.1722 -0.0847726 -1.1917e-19)
(5.2663 -0.084339 1.18131e-19)
(5.36085 -0.0838123 1.17922e-19)
(5.45575 -0.0831758 0)
(5.55086 -0.0824074 0)
(5.64603 -0.0814767 -1.15285e-19)
(5.74108 -0.0803421 0)
(5.83577 -0.0789505 0)
(5.9298 -0.0772325 2.25655e-19)
(6.02267 -0.0750601 0)
(6.1137 -0.0721425 1.10753e-19)
(6.20224 -0.0678462 -1.10126e-19)
(6.28848 -0.0610188 0)
(6.3754 -0.0505349 1.07931e-19)
(6.46926 -0.0370729 0)
(6.57134 -0.0235786 0)
(6.67354 -0.0110569 -1.05061e-19)
(6.76957 0.000524829 2.07784e-19)
(6.85446 0.0111569 -1.03028e-19)
(6.92478 0.0205782 0)
(6.97842 0.0285256 0)
(7.01401 0.0349042 1.00515e-19)
(7.03082 0.0397549 0)
(7.0287 0.043213 9.98525e-20)
(7.00795 0.0454617 0)
(6.96915 0.0465984 0)
(6.91323 0.0466258 0)
(6.84144 0.0456378 1.00974e-19)
(6.7557 0.0436992 0)
(6.65883 0.0402066 -1.02726e-19)
(6.55343 0.0350698 0)
(6.44477 0.0272281 0)
(6.33634 0.0147439 2.12562e-19)
(6.23264 -0.000867378 -2.15009e-19)
(6.13688 -0.0108503 0)
(6.04204 0.0114689 0)
(5.97404 0.0569879 0)
(5.91422 0.0942036 6.69186e-19)
(5.86896 0.139223 0)
(5.79141 0.187771 -4.5774e-19)
(0.126891 -0.685176 7.14028e-22)
(0.264434 -0.81222 1.24437e-19)
(0.387802 -0.751283 0)
(0.479494 -0.643581 -1.11195e-19)
(0.535969 -0.516351 0)
(0.562159 -0.378458 0)
(0.561937 -0.234723 -9.5724e-22)
(0.53698 -0.0881304 5.53351e-20)
(0.486976 0.0594596 5.66135e-20)
(0.413499 0.206681 5.53134e-20)
(0.31778 0.352867 0)
(0.200393 0.49632 0)
(0.0614885 0.632934 -5.70068e-20)
(-0.0997054 0.754896 -1.11192e-19)
(-0.283957 0.852902 1.04606e-19)
(-0.49146 0.921147 0)
(-0.720099 0.961278 9.06363e-20)
(-0.963905 0.981901 -4.06379e-20)
(-1.2146 0.992057 0)
(-1.46424 0.996402 7.27714e-20)
(-1.70662 0.995233 3.30652e-20)
(-1.93745 0.986704 -6.56168e-20)
(-2.15417 0.968686 -3.03151e-20)
(-2.35551 0.939766 0)
(-2.5411 0.899579 6.03223e-20)
(-2.71107 0.848718 5.93366e-20)
(-2.86573 0.788432 0)
(-3.00534 0.720275 5.77557e-20)
(-3.12997 0.645845 0)
(-3.23949 0.566625 5.6126e-20)
(-3.33356 0.483939 2.61024e-20)
(-3.41169 0.398952 0)
(-3.47322 0.312689 0)
(-3.51743 0.226045 0)
(-3.54353 0.139808 0)
(-3.55079 0.0546016 0)
(-3.53863 -0.0289975 0)
(-3.50668 -0.11048 4.07784e-20)
(-3.45497 -0.189155 -5.47184e-20)
(-3.38398 -0.264174 0)
(-3.29435 -0.334791 0)
(-3.18697 -0.400395 0)
(-3.06293 -0.460479 -2.20744e-21)
(-2.92349 -0.514647 1.46666e-20)
(-2.7701 -0.562612 2.22546e-20)
(-2.60428 -0.604204 -1.28341e-20)
(-2.42766 -0.639372 -2.5243e-21)
(-2.24187 -0.668178 -4.13182e-21)
(-2.04856 -0.690787 1.66649e-21)
(-1.84933 -0.707462 -1.23431e-20)
(-1.64572 -0.718538 0)
(-1.43919 -0.724415 -2.2353e-20)
(-1.23107 -0.725531 1.45344e-21)
(-1.02259 -0.722351 0)
(-0.814845 -0.715349 0)
(-0.608831 -0.705002 4.23296e-20)
(-0.405454 -0.691772 0)
(-0.205501 -0.676067 0)
(-0.00967696 -0.658244 -5.43923e-20)
(0.181352 -0.638639 -1.16448e-19)
(0.367165 -0.617563 6.16591e-20)
(0.547369 -0.595296 0)
(0.721662 -0.572079 -6.5526e-20)
(0.889804 -0.548115 0)
(1.05161 -0.523573 -6.69907e-20)
(1.20694 -0.498592 -6.99083e-20)
(1.3557 -0.473288 1.40716e-19)
(1.49781 -0.447759 7.07883e-20)
(1.63323 -0.42209 0)
(1.76195 -0.396361 -1.46076e-19)
(1.88394 -0.370653 0)
(1.99923 -0.34505 -2.22767e-19)
(2.10782 -0.319646 -1.48989e-19)
(2.20973 -0.294541 -1.49485e-19)
(2.30501 -0.269846 1.49774e-19)
(2.39369 -0.245677 -2.24999e-19)
(2.47583 -0.22215 0)
(2.55149 -0.199376 0)
(2.62074 -0.177457 1.49261e-19)
(2.68369 -0.156477 2.23306e-19)
(2.74048 -0.136507 0)
(2.79125 -0.117598 -7.38869e-20)
(2.83619 -0.0997866 0)
(2.87553 -0.0831024 2.19514e-19)
(2.90952 -0.0675762 1.95004e-23)
(2.93841 -0.0532378 -4.81784e-24)
(2.96243 -0.0400641 -1.44047e-19)
(2.98183 -0.0279096 0)
(2.99684 -0.0168044 1.42437e-19)
(3.00765 -0.00679091 -2.43938e-23)
(3.01448 0.00210816 0)
(3.01762 0.00990512 0)
(3.01743 0.0166176 0)
(3.01428 0.0222554 -1.37314e-19)
(3.00859 0.0268206 0)
(3.00081 0.0303096 0)
(2.99142 0.032716 0)
(2.98091 0.0340335 0)
(2.96981 0.0342585 0)
(2.95864 0.0333925 -1.31339e-19)
(2.94795 0.0314442 0)
(2.93829 0.0284311 -1.29474e-19)
(2.93018 0.0243796 -1.28529e-19)
(2.92416 0.0193269 1.27599e-19)
(2.92073 0.0133198 0)
(2.92033 0.00641612 1.25797e-19)
(2.92334 -0.00130212 0)
(2.93008 -0.00972512 1.23855e-19)
(2.94079 -0.0186818 -1.22855e-19)
(2.95562 -0.0280297 -3.65235e-19)
(2.97473 -0.0376337 0)
(2.99822 -0.0473467 -3.5984e-19)
(3.02617 -0.0570201 -1.1876e-19)
(3.0586 -0.0665119 0)
(3.09552 -0.075693 -2.35166e-19)
(3.13687 -0.0844504 -2.33908e-19)
(3.18255 -0.0926912 3.49506e-19)
(3.23245 -0.100344 0)
(3.28639 -0.10736 1.15808e-19)
(3.3442 -0.113713 1.1544e-19)
(3.40566 -0.119397 3.44669e-19)
(3.47054 -0.124422 0)
(3.5386 -0.128813 0)
(3.60959 -0.132606 0)
(3.68327 -0.135842 1.1359e-19)
(3.75939 -0.138568 0)
(3.83771 -0.140831 0)
(3.918 -0.142678 -1.13936e-19)
(4.00005 -0.144157 -1.13836e-19)
(4.08366 -0.145311 0)
(4.16865 -0.146182 0)
(4.25488 -0.146809 -2.27027e-19)
(4.34222 -0.147229 0)
(4.43053 -0.147475 2.26453e-19)
(4.51975 -0.147573 2.25518e-19)
(4.60978 -0.147547 0)
(4.70056 -0.147413 0)
(4.79205 -0.147183 -2.24092e-19)
(4.8842 -0.146858 -5.17996e-22)
(4.97695 -0.146435 -5.04157e-22)
(5.07026 -0.145901 0)
(5.16407 -0.145238 -4.42512e-19)
(5.25829 -0.144423 0)
(5.35284 -0.143426 0)
(5.44757 -0.142209 0)
(5.54234 -0.140725 2.16794e-19)
(5.63697 -0.138912 0)
(5.73121 -0.136684 -4.26954e-19)
(5.82477 -0.133916 -2.12321e-19)
(5.9173 -0.130409 0)
(6.0084 -0.125866 -2.09082e-19)
(6.09779 -0.119942 0)
(6.18559 -0.112479 0)
(6.27246 -0.103658 -6.12167e-19)
(6.35916 -0.0935773 4.04814e-19)
(6.44596 -0.0817632 0)
(6.53216 -0.0683664 3.99172e-19)
(6.61658 -0.0537652 -1.98599e-19)
(6.69833 -0.0384685 0)
(6.77594 -0.0230884 0)
(6.84728 -0.00810815 0)
(6.9102 0.00618214 -5.80596e-19)
(6.96254 0.0196295 0)
(7.00232 0.0321834 -1.92135e-19)
(7.02769 0.0438668 0)
(7.03698 0.0546895 0)
(7.02875 0.0645549 0)
(7.00188 0.0731509 0)
(6.95597 0.0800264 0)
(6.89187 0.0849476 0)
(6.81138 0.0877046 -3.97669e-19)
(6.71766 0.0891809 0)
(6.61457 0.0910361 -2.03942e-19)
(6.50647 0.0937884 6.19733e-19)
(6.40042 0.0956938 0)
(6.30024 0.0895135 0)
(6.20578 0.081962 -4.289e-19)
(6.11722 0.0894853 -4.35732e-19)
(6.03829 0.128797 4.3862e-19)
(5.97204 0.19883 4.47234e-19)
(0.0722142 -1.01958 -2.111e-19)
(0.157568 -1.02976 -1.81023e-19)
(0.201407 -0.880309 -1.13822e-19)
(0.224398 -0.710687 -5.56791e-20)
(0.226332 -0.532329 0)
(0.208135 -0.348022 1.11419e-19)
(0.17077 -0.160063 -5.71689e-20)
(0.11404 0.0294364 0)
(0.0381289 0.218467 -5.69947e-20)
(-0.0575506 0.406162 0)
(-0.173569 0.591565 1.07058e-19)
(-0.309102 0.773042 0)
(-0.462437 0.946363 4.76086e-20)
(-0.631493 1.10345 8.96295e-20)
(-0.814122 1.2338 -8.38514e-20)
(-1.00829 1.32983 0)
(-1.21178 1.39047 -7.2552e-20)
(-1.42151 1.42092 0)
(-1.63342 1.42865 0)
(-1.84332 1.41961 -6.00114e-20)
(-2.04761 1.39723 0)
(-2.2437 1.36302 -3.55376e-21)
(-2.43005 1.31754 0)
(-2.6059 1.26112 0)
(-2.77097 1.19431 3.70162e-21)
(-2.92511 1.11791 -5.17262e-20)
(-3.06807 1.0329 -5.51331e-20)
(-3.19933 0.940352 -5.0942e-20)
(-3.31811 0.841293 0)
(-3.42336 0.736708 -1.04038e-19)
(-3.51388 0.627535 0)
(-3.5884 0.514709 -5.2582e-20)
(-3.64566 0.399191 0)
(-3.68453 0.281988 0)
(-3.70404 0.164171 4.86446e-20)
(-3.70349 0.0468412 0)
(-3.68249 -0.0689182 -4.38616e-20)
(-3.64094 -0.181919 3.44824e-21)
(-3.57908 -0.290979 7.17626e-20)
(-3.49744 -0.394944 -6.79108e-20)
(-3.39681 -0.492757 0)
(-3.27822 -0.583496 0)
(-3.14294 -0.666386 -2.44433e-20)
(-2.99243 -0.740819 0)
(-2.82828 -0.806365 -1.10789e-20)
(-2.65223 -0.862776 6.72209e-21)
(-2.46605 -0.909987 2.2968e-21)
(-2.27155 -0.948107 0)
(-2.07049 -0.977406 6.65563e-21)
(-1.86459 -0.998288 1.11364e-20)
(-1.65548 -1.01127 -2.88863e-20)
(-1.44464 -1.01696 2.00118e-20)
(-1.23346 -1.01602 2.43779e-20)
(-1.02316 -1.00914 0)
(-0.814843 -0.99703 0)
(-0.609457 -0.980383 -3.70879e-20)
(-0.407851 -0.959871 0)
(-0.21071 -0.936106 0)
(-0.018617 -0.909602 9.61983e-20)
(0.167848 -0.880828 1.00565e-19)
(0.348329 -0.850241 0)
(0.522484 -0.818232 0)
(0.690085 -0.785141 0)
(0.850974 -0.751251 0)
(1.00506 -0.716794 1.17181e-19)
(1.15229 -0.681963 -1.18783e-19)
(1.29267 -0.646913 -1.22095e-19)
(1.42623 -0.611773 -2.47764e-19)
(1.55304 -0.576652 0)
(1.67318 -0.541648 6.49581e-22)
(1.78676 -0.506856 0)
(1.89387 -0.47237 1.31432e-19)
(1.99463 -0.43829 4.16619e-22)
(2.08914 -0.404721 1.34015e-19)
(2.17753 -0.371777 -1.3504e-19)
(2.25987 -0.339573 2.13589e-22)
(2.33628 -0.308228 0)
(2.40684 -0.277856 -1.36937e-19)
(2.47165 -0.248565 -1.37373e-19)
(2.53081 -0.220449 -2.75063e-19)