/*--------------------------------*- C++ -*----------------------------------*\
  =========                 |
  \\      /  F ield         | OpenFOAM: The Open Source CFD Toolbox
   \\    /   O peration     | Website:  https://openfoam.org
    \\  /    A nd           | Version:  9
     \\/     M anipulation  |
\*---------------------------------------------------------------------------*/
FoamFile
{
    format      ascii;
    class       volScalarField;
    location    "0.03";
    object      epsilon;
}
// * * * * * * * * * * * * * * * * * * * * * * * * * * * * * * * * * * * * * //

dimensions      [0 2 -3 0 0 0 0];

internalField   nonuniform List<scalar> 
12225
(
209.365
125.951
81.382
57.8854
45.065
37.5297
32.6855
29.3561
27.0166
25.3898
24.2649
23.4482
22.7761
22.139
21.5272
21.2054
28.4407
103.022
61.2038
54.6174
41.9553
33.1584
27.4586
23.6144
20.8792
18.8261
17.2402
16.0225
15.1094
14.4327
13.9111
13.4551
12.9909
12.8389
18.767
85.5257
31.4063
33.0695
28.6983
24.2745
20.8149
18.2354
16.3078
14.838
13.7019
12.8334
12.1934
11.7451
11.4432
11.2349
11.1232
11.7537
19.6186
87.8237
21.8263
23.7988
22.1215
19.6632
17.3921
15.5259
14.0524
12.9019
12.0099
11.3338
10.8469
10.5276
10.3513
10.2987
10.4581
11.7291
21.0078
87.1708
17.818
19.0628
18.2874
16.7922
15.2264
13.8319
12.6723
11.7406
11.0108
10.4598
10.0718
9.83564
9.74215
9.80185
10.1752
11.9084
21.6852
82.0319
15.8839
16.4023
15.8813
14.8595
13.7173
12.6429
11.712
10.9437
10.334
9.87401
9.55722
9.38076
9.34816
9.49525
10.035
12.0626
21.6465
74.0287
14.8807
14.8297
14.3157
13.5133
12.62
11.7595
10.9945
10.3501
9.83267
9.44238
9.17979
9.04894
9.0637
9.27999
9.94233
12.1203
21.0653
64.7784
14.3424
13.8779
13.2819
12.5646
11.8099
11.0871
10.4391
9.88693
9.44017
9.1038
8.8832
8.7878
8.83975
9.10919
9.8533
12.0651
20.1208
55.4527
14.05
13.2986
12.5991
11.8974
11.2122
10.5733
10.0039
9.51792
9.12376
8.82825
8.63967
8.57136
8.65151
8.9588
9.74758
11.9037
18.9617
46.7822
13.8911
12.9486
12.1529
11.4339
10.7763
10.184
9.66426
9.22313
8.86623
8.60034
8.43512
8.38641
8.48626
8.81661
9.61752
11.6532
17.6994
39.132
13.8053
12.7405
11.867
11.1185
10.465
9.89456
9.40315
8.99012
8.65778
8.41186
8.26237
8.22639
8.33777
8.67728
9.46284
11.3343
16.4156
32.6306
13.7632
12.6294
11.7033
10.9272
10.2667
9.70246
9.22358
8.82477
8.50564
8.27066
8.1295
8.09949
8.21438
8.55066
9.30167
10.9983
15.2713
27.7068
13.7391
12.5618
11.5976
10.7972
10.1259
9.56069
9.08638
8.69438
8.38214
8.15286
8.01554
7.98706
8.09982
8.42374
9.12489
10.6293
14.1409
23.4126
13.7248
12.5191
11.527
10.7056
10.0221
9.45168
8.97683
8.58658
8.27661
8.04888
7.91142
7.88
7.98428
8.28499
8.9172
10.2029
12.9745
19.57
13.7173
12.4956
11.4859
10.6495
9.95514
9.37805
8.89944
8.50704
8.19532
7.96514
7.8234
7.78406
7.87273
8.13889
8.68523
9.73822
11.8305
16.2995
13.7139
12.4847
11.4661
10.6212
9.91988
9.33733
8.85435
8.45804
8.14213
7.9066
7.75702
7.70506
7.77127
7.99297
8.44193
9.26399
10.7703
13.6555
13.7125
12.4805
11.4589
10.6113
9.90747
9.32261
8.83712
8.43764
8.11736
7.87534
7.71574
7.64757
7.68603
7.8567
8.2048
8.81451
9.84846
11.6293
13.7117
12.479
11.4575
10.6107
9.90845
9.32517
8.8407
8.44097
8.11831
7.87068
7.70055
7.61419
7.62177
7.73898
7.99085
8.41949
9.09813
10.1561
13.7108
12.478
11.4578
10.6141
9.91634
9.33848
8.85933
8.46361
8.14221
7.89144
7.71177
7.60677
7.58247
7.64737
7.81342
8.09803
8.52747
9.14216
13.7106
12.4793
11.4625
10.6238
9.93239
9.36163
8.88955
8.49974
8.18171
7.93015
7.74376
7.62407
7.57454
7.6001
7.70705
7.9032
8.19819
8.6035
13.7137
12.4903
11.4834
10.6545
9.97129
9.407
8.93966
8.55283
8.23549
7.9814
7.78795
7.65508
7.58443
7.5788
7.64161
7.77661
7.98705
8.27437
13.7271
12.5307
11.551
10.7425
10.0707
9.51015
9.04124
8.64957
8.32522
8.06198
7.85644
7.70726
7.61456
7.57945
7.60357
7.68853
7.83491
8.04056
13.7698
12.6476
11.7288
10.9548
10.2927
9.7246
9.2385
8.82573
8.47956
8.19476
7.96746
7.79506
7.67612
7.61016
7.59733
7.63784
7.73099
7.87337
13.891
12.9416
12.1341
11.3997
10.7266
10.1203
9.58544
9.12348
8.73241
8.40805
8.14553
7.94035
7.78906
7.68932
7.63968
7.63912
7.68603
7.77654
14.2107
13.6105
12.9596
12.2356
11.4907
10.7822
10.1446
9.59185
9.1254
8.73988
8.42725
8.17954
7.99017
7.8543
7.76856
7.73051
7.73765
7.78571
15.0173
15.0426
14.531
13.6934
12.7463
11.8227
11.0008
10.3025
9.72563
9.25721
8.8815
8.58422
8.35401
8.1826
8.06419
7.9946
7.97021
7.98619
17.0445
18.0568
17.4469
16.1667
14.7511
13.436
12.3124
11.4023
10.6794
10.1102
9.66377
9.31547
9.04716
8.8461
8.70347
8.61303
8.56976
8.56781
22.5253
24.6796
23.0079
20.4805
18.0823
16.0755
14.489
13.2888
12.3862
11.7049
11.1881
10.7957
10.5006
10.2846
10.1356
10.0448
10.0055
10.0102
40.6895
41.1385
34.918
29.0975
24.63
21.3532
19.0127
17.3911
16.2612
15.4564
14.8743
14.4531
14.1549
13.9559
13.84
13.7957
13.814
13.885
135.785
96.872
71.5374
55.1587
44.6879
38.0641
33.9001
31.3315
29.6576
28.4966
27.6578
27.0493
26.6284
26.3732
26.2694
26.3035
26.461
26.7225
82.6852
125.419
138.176
143.686
143.399
138.754
130.766
120.489
111.088
102.566
95.0169
89.2381
86.4967
87.904
93.3949
100.796
107.059
110.588
112.223
116.229
125.83
138.78
154.15
171.419
190.229
210.287
231.337
253.15
275.528
298.299
321.313
344.447
367.595
390.669
413.594
436.309
458.758
480.897
502.685
524.091
545.085
565.65
585.775
605.461
624.729
643.62
662.212
680.627
699.055
717.736
735.301
751.637
766.634
780.13
791.932
801.824
809.578
814.958
817.724
817.647
814.51
808.121
798.322
784.997
768.083
747.58
723.553
696.145
665.577
632.146
596.225
558.258
518.744
478.231
437.292
396.511
356.461
317.688
280.706
245.614
213.986
187.395
163.887
142.886
124.192
107.667
93.1773
80.5734
69.7188
60.5025
53.4587
49.01
47.2397
10.8971
11.1217
47.9649
10.9742
10.9031
11.121
10.8897
10.4793
10.0266
9.59292
9.20359
8.86645
8.58065
8.34158
8.14358
7.98121
7.84926
7.74254
7.65579
7.58428
7.52444
7.47409
7.432
7.39737
7.36962
7.3484
7.33349
7.32454
7.32061
7.32004
7.32082
7.32129
7.32074
7.31952
7.31825
7.31743
7.31747
7.3189
7.32232
7.32814
7.33618
7.34535
7.35369
7.35987
7.36358
7.36558
7.3668
7.36797
7.36982
7.37315
7.37866
7.38643
7.39563
7.4046
7.41152
7.41547
7.41747
7.41869
7.41985
7.42154
7.42464
7.43014
7.4386
7.44953
7.46123
7.47106
7.47703
7.48057
7.48325
7.48572
7.48843
7.49222
7.49826
7.50756
7.5201
7.53453
7.54828
7.55851
7.56518
7.5707
7.57647
7.58391
7.59661
7.62147
7.6616
7.71576
7.75711
124.693
113.821
106.496
99.2693
92.5666
86.8733
82.4255
79.6189
79.4726
81.6049
86.3243
94.637
107.619
125.412
146.938
168.631
185.961
199.473
210.02
218.613
225.735
231.334
235.469
238.333
240.2
241.357
242.06
242.515
242.878
243.259
243.729
244.332
245.092
246.014
247.098
248.335
249.718
251.236
252.884
254.659
256.566
258.614
260.824
263.229
265.872
268.817
272.15
275.984
280.458
285.878
291.495
297.056
302.471
307.656
312.517
316.951
320.845
324.081
326.536
328.082
328.595
327.957
326.056
322.8
318.111
311.939
304.262
295.09
284.468
272.479
259.241
244.909
229.67
213.738
197.348
180.746
164.179
147.88
132.027
116.585
102.109
89.4754
78.3015
68.3988
59.6533
51.9742
45.2756
39.4733
34.4912
30.2745
26.8517
24.1546
21.8885
18.6435
16.5566
15.9145
13.6154
11.8128
10.1297
9.07621
8.39533
7.89446
7.49273
7.16018
6.88394
6.65583
6.46888
6.31676
6.19394
6.09563
6.01751
5.95556
5.90612
5.86623
5.83383
5.80762
5.7867
5.77041
5.75822
5.74975
5.74468
5.74259
5.74277
5.74414
5.74556
5.7463
5.74626
5.74569
5.74483
5.74387
5.74298
5.74243
5.74251
5.74348
5.7453
5.74715
5.74814
5.74772
5.74604
5.74354
5.74062
5.73759
5.7348
5.73264
5.73143
5.73128
5.73174
5.73178
5.73043
5.72781
5.72449
5.72087
5.71726
5.71398
5.71148
5.71022
5.7105
5.71212
5.71388
5.7142
5.71318
5.7116
5.70993
5.70848
5.70762
5.7079
5.70994
5.71435
5.72147
5.73053
5.73996
5.74961
5.76125
5.77661
5.79732
5.82483
5.8591
5.89159
5.91095
5.90324
148.958
129.6
118.629
109.091
101.172
95.2758
91.923
92.1131
95.9233
104.46
118.793
138.209
160.957
183.914
203.694
217.771
225.449
227.966
227.09
224.309
220.546
216.299
211.897
207.585
203.55
199.915
196.748
194.07
191.87
190.118
188.77
187.783
187.118
186.74
186.627
186.764
187.146
187.779
188.672
189.843
191.311
193.1
195.235
197.739
200.636
203.949
207.696
211.891
216.537
221.574
226.83
232.222
237.682
243.135
248.495
253.666
258.539
262.999
266.92
270.174
272.629
274.158
274.636
273.952
272.009
268.729
264.061
257.981
250.498
241.653
231.526
220.23
207.913
194.751
180.947
166.72
152.297
137.896
123.693
109.753
96.5237
84.7077
74.142
64.7317
56.4044
49.0903
42.7154
37.2011
32.4672
28.4352
25.0327
22.1775
19.7356
17.5247
15.6004
13.9822
12.5081
11.2064
10.0104
9.05746
8.32408
7.74675
7.2803
6.89877
6.58643
6.33207
6.12651
5.96179
5.831
5.72821
5.64824
5.58654
5.5391
5.50263
5.47463
5.4533
5.43734
5.42576
5.4178
5.4129
5.4107
5.41088
5.41293
5.41611
5.41954
5.42252
5.4248
5.42638
5.42737
5.42783
5.42783
5.42755
5.42728
5.42736
5.42789
5.4285
5.42866
5.42787
5.42603
5.42333
5.41999
5.41619
5.41215
5.40822
5.40481
5.40225
5.40046
5.39877
5.39638
5.3931
5.38914
5.38477
5.38014
5.37543
5.37097
5.36724
5.36474
5.36364
5.36329
5.36255
5.36109
5.35926
5.35738
5.3557
5.35445
5.35402
5.35503
5.35833
5.36464
5.3738
5.38495
5.3981
5.41455
5.43571
5.4624
5.494
5.52733
5.5532
5.56008
5.54487
166.517
162.837
147.274
133.98
124.201
118.189
116.612
118.878
125.374
136.567
152.145
170.458
188.753
203.99
213.973
218.057
217.111
212.835
206.897
200.496
194.316
188.687
183.748
179.536
176.032
173.178
170.904
169.128
167.773
166.772
166.067
165.616
165.391
165.378
165.574
165.986
166.628
167.521
168.687
170.154
171.945
174.087
176.604
179.515
182.837
186.581
190.752
195.347
200.352
205.706
211.335
217.18
223.179
229.262
235.344
241.331
247.115
252.578
257.595
262.031
265.751
268.616
270.494
271.258
270.796
269.01
265.828
261.201
255.11
247.571
238.632
228.378
216.93
204.44
191.094
177.099
162.679
148.058
133.433
118.923
105.134
92.6017
81.2489
71.0381
61.9349
53.8938
46.855
40.7456
35.4828
30.9777
27.138
23.8728
21.0914
18.6939
16.6167
14.8198
13.2576
11.8982
10.7092
9.70327
8.86765
8.17429
7.59746
7.11773
6.7204
6.39352
6.12677
5.91096
5.73788
5.6003
5.49186
5.40697
5.34081
5.28933
5.24931
5.21828
5.19438
5.17617
5.16256
5.15277
5.14626
5.14259
5.14127
5.14163
5.14289
5.14437
5.14565
5.1466
5.14718
5.14737
5.14721
5.14682
5.14643
5.14633
5.14664
5.14712
5.14736
5.14694
5.14569
5.14364
5.14091
5.13766
5.13406
5.13044
5.12721
5.1247
5.12288
5.12131
5.11936
5.11673
5.11348
5.10974
5.10566
5.10139
5.09721
5.0936
5.09105
5.08976
5.08932
5.08889
5.08808
5.08697
5.08579
5.08475
5.08405
5.08406
5.08541
5.08892
5.09531
5.10458
5.1163
5.13044
5.14778
5.16913
5.19448
5.22203
5.24763
5.26465
5.26601
5.25698
165.583
223.606
189.372
169.19
156.65
149.478
146.216
146.755
151.379
159.693
170.507
181.894
191.653
198.024
200.256
198.715
194.516
188.959
183.107
177.622
172.829
168.825
165.592
163.054
161.114
159.669
158.623
157.892
157.408
157.12
156.994
157.01
157.165
157.466
157.929
158.579
159.442
160.549
161.933
163.623
165.65
168.041
170.819
174.001
177.603
181.629
186.08
190.946
196.209
201.828
207.757
213.947
220.343
226.878
233.471
240.032
246.456
252.629
258.426
263.715
268.357
272.212
275.142
277.013
277.701
277.096
275.106
271.663
266.723
260.273
252.331
242.947
232.208
220.234
207.18
193.231
178.597
163.499
148.15
132.713
118.074
104.523
92.0667
80.7284
70.5196
61.4284
53.4171
46.425
40.3735
35.1708
30.7185
26.9187
23.6857
20.9214
18.5463
16.4985
14.7264
13.1891
11.8546
10.7052
9.72155
8.88232
8.16813
7.56271
7.05238
6.62524
6.27055
5.97841
5.73974
5.54625
5.39046
5.26569
5.16612
5.08675
5.02346
4.97296
4.93266
4.90055
4.87507
4.85507
4.83968
4.82823
4.82009
4.81456
4.81086
4.80831
4.8064
4.80484
4.80347
4.80219
4.80098
4.79988
4.79904
4.79863
4.79875
4.79923
4.79967
4.79974
4.79924
4.79812
4.79645
4.79433
4.79191
4.78948
4.78734
4.78578
4.78478
4.78403
4.78307
4.78163
4.77965
4.77722
4.77446
4.77151
4.76863
4.7662
4.76463
4.76409
4.76428
4.76465
4.76481
4.76474
4.76459
4.76453
4.76475
4.76559
4.76758
4.77143
4.77771
4.7865
4.79758
4.81081
4.82648
4.84488
4.86549
4.88618
4.90325
4.91276
4.91199
4.91039
179.214
264.444
228.436
205.832
191.084
180.184
172.695
168.972
168.864
171.603
175.88
180.135
182.993
183.66
182.072
178.749
174.481
170.013
165.873
162.34
159.504
157.339
155.763
154.676
153.973
153.561
153.361
153.313
153.371
153.508
153.714
153.989
154.349
154.814
155.413
156.179
157.147
158.353
159.831
161.614
163.734
166.217
169.084
172.353
176.036
180.135
184.649
189.567
194.867
200.528
206.522
212.81
219.343
226.06
232.889
239.745
246.532
253.141
259.453
265.34
270.669
275.3
279.094
281.915
283.631
284.125
283.291
281.044
277.319
272.076
265.299
257.003
247.231
236.06
223.599
209.991
195.411
180.058
164.137
147.963
132.571
118.035
104.456
91.929
80.5237
70.2721
61.1684
53.1726
46.2166
40.2123
35.0593
30.6538
26.9033
23.7027
20.962
18.6056
16.5707
14.8066
13.2735
11.9416
10.7855
9.78356
8.91726
8.17119
7.53217
6.98852
6.52947
6.14492
5.82533
5.56175
5.34583
5.16995
5.02725
4.91174
4.8183
4.74267
4.68142
4.63178
4.59157
4.5591
4.53307
4.51246
4.49638
4.48398
4.47445
4.46705
4.46119
4.45646
4.45259
4.44939
4.44675
4.44464
4.44309
4.44218
4.44191
4.44216
4.4426
4.44294
4.44297
4.44261
4.44188
4.44084
4.43961
4.43839
4.43741
4.43684
4.43669
4.43676
4.43671
4.43633
4.43554
4.4344
4.43299
4.43143
4.42993
4.42879
4.42829
4.42855
4.42939
4.43042
4.43136
4.43215
4.43287
4.43366
4.43469
4.43622
4.43868
4.44261
4.4484
4.45624
4.46591
4.47721
4.49016
4.5047
4.5201
4.53449
4.54508
4.54992
4.54893
4.55201
846.554
348.244
270.542
240.322
220.413
204.847
192.781
184.18
178.81
175.981
174.654
173.738
172.408
170.284
167.42
164.142
160.854
157.888
155.443
153.586
152.291
151.483
151.065
150.941
151.022
151.236
151.524
151.848
152.184
152.523
152.869
153.238
153.653
154.145
154.748
155.5
156.437
157.598
159.018
160.731
162.767
165.152
167.907
171.049
174.588
178.527
182.865
187.591
192.687
198.145
203.953
210.085
216.498
223.142
229.952
236.853
243.758
250.568
257.172
263.45
269.274
274.509
279.018
282.665
285.318
286.854
287.16
286.138
283.711
279.814
274.408
267.471
259.004
249.031
237.602
224.801
210.741
195.568
179.429
163.086
147.189
131.869
117.306
103.673
91.1062
79.6942
69.4742
60.4366
52.5322
45.6819
39.7875
34.7418
30.4413
26.7735
23.6379
20.9472
18.6275
16.6176
14.8684
13.3412
12.0052
10.8356
9.81272
8.92061
8.14615
7.47787
6.90532
6.41858
6.00813
5.66478
5.37973
5.14464
4.95181
4.79429
4.66592
4.56145
4.47645
4.40729
4.351
4.30524
4.26813
4.2382
4.2142
4.19507
4.17986
4.16772
4.15798
4.15011
4.14373
4.13858
4.13445
4.13122
4.12884
4.12726
4.12645
4.12625
4.12644
4.12674
4.12697
4.12702
4.12688
4.12658
4.1262
4.12586
4.1257
4.12584
4.12628
4.12687
4.12741
4.12773
4.12777
4.12755
4.12715
4.12665
4.1262
4.12602
4.12628
4.12708
4.1283
4.12969
4.13105
4.13232
4.13355
4.13485
4.13636
4.13827
4.14089
4.1446
4.14967
4.15628
4.16425
4.17337
4.18352
4.19447
4.20552
4.21524
4.22177
4.22433
4.22403
4.22922
180.42
304.187
283.011
260.306
239.795
221.545
205.927
193.288
183.643
176.591
171.427
167.399
163.934
160.736
157.755
155.082
152.842
151.117
149.926
149.232
148.957
149.01
149.297
149.732
150.244
150.776
151.289
151.759
152.175
152.541
152.871
153.186
153.517
153.896
154.361
154.951
155.705
156.66
157.853
159.316
161.081
163.171
165.611
168.416
171.598
175.163
179.111
183.435
188.123
193.175
198.597
204.371
210.465
216.837
223.433
230.188
237.025
243.856
250.579
257.083
263.246
268.939
274.028
278.378
281.858
284.341
285.712
285.871
284.731
282.22
278.282
272.871
265.955
257.509
247.524
236.006
222.988
208.536
192.787
176.826
160.843
145.078
129.796
115.252
101.659
89.1709
77.8823
67.8249
58.978
51.2794
44.6376
38.9456
34.0887
29.9477
26.4125
23.3848
20.7794
18.5246
16.5615
14.8433
13.333
12.0016
10.8269
9.79183
8.88281
8.08856
7.39913
6.80522
6.2978
5.86796
5.5069
5.206
4.957
4.75218
4.58448
4.44763
4.33619
4.24555
4.17187
4.11202
4.06345
4.02412
3.99236
3.96678
3.9462
3.92963
3.91627
3.90547
3.89674
3.88971
3.88411
3.87973
3.87643
3.87409
3.8726
3.87182
3.87156
3.87158
3.8717
3.87183
3.87191
3.87196
3.87202
3.87215
3.87244
3.87294
3.87364
3.87447
3.87527
3.87593
3.87641
3.87672
3.8769
3.87704
3.87723
3.8776
3.87828
3.87932
3.88064
3.8821
3.88356
3.88497
3.88637
3.88785
3.8895
3.89147
3.89398
3.89726
3.90151
3.90686
3.91316
3.92024
3.92793
3.93597
3.94379
3.95038
3.9546
3.95632
3.95694
3.9629
808.416
377.461
306.717
275.203
251.758
231.274
213.217
197.879
185.449
175.769
168.391
162.759
158.385
154.942
152.248
150.219
148.803
147.947
147.579
147.608
147.939
148.475
149.13
149.83
150.514
151.14
151.68
152.119
152.456
152.7
152.87
152.992
153.097
153.222
153.405
153.685
154.102
154.694
155.498
156.547
157.873
159.502
161.46
163.763
166.428
169.463
172.873
176.656
180.805
185.328
190.241
195.537
201.19
207.169
213.43
219.918
226.568
233.302
240.03
246.648
253.04
259.083
264.643
269.585
273.774
277.082
279.391
280.6
280.622
279.39
276.845
272.941
267.627
260.852
252.555
242.67
231.129
217.855
203.367
188.239
172.642
156.863
141.228
126.066
111.667
98.2645
86.0182
75.0153
65.2748
56.76
49.3934
43.0726
37.6736
33.0727
29.1511
25.8001
22.9236
20.4392
18.2782
16.3854
14.7169
13.239
11.926
10.759
9.72354
8.80842
8.0043
7.30278
6.69583
6.17535
5.73312
5.36076
5.04991
4.79241
4.58053
4.40713
4.26583
4.15102
4.05792
3.98253
3.92152
3.87221
3.8324
3.80028
3.77438
3.75349
3.73662
3.72298
3.71196
3.70309
3.69601
3.69042
3.68611
3.68291
3.68065
3.67918
3.67832
3.67788
3.67767
3.6776
3.67761
3.67768
3.67783
3.67809
3.67849
3.67906
3.67978
3.6806
3.6814
3.68213
3.68275
3.68325
3.68369
3.6841
3.68457
3.68516
3.68597
3.68701
3.68823
3.68955
3.69089
3.6922
3.69353
3.69493
3.69648
3.69828
3.70048
3.70322
3.70664
3.71082
3.71566
3.721
3.72669
3.73251
3.73803
3.74259
3.74554
3.74705
3.74842
3.75437
859.491
394.342
315.595
281.363
256.655
235.164
215.982
199.353
185.563
174.617
166.227
159.948
155.328
151.992
149.668
148.161
147.322
147.024
147.148
147.582
148.222
148.974
149.759
150.51
151.178
151.728
152.139
152.403
152.523
152.511
152.391
152.189
151.94
151.681
151.451
151.29
151.241
151.342
151.633
152.149
152.923
153.984
155.36
157.071
159.135
161.565
164.371
167.555
171.115
175.065
179.425
184.192
189.351
194.879
200.742
206.899
213.297
219.87
226.539
233.21
239.773
246.107
252.077
257.542
262.357
266.386
269.502
271.598
272.592
272.422
271.046
268.434
264.55
259.341
252.726
244.588
234.775
223.164
210.413
196.584
181.865
166.55
150.994
135.581
120.674
106.585
93.5519
81.727
71.1814
61.9148
53.8714
46.9591
41.0496
36.0169
31.7357
28.0876
24.9659
22.2776
19.9444
17.9022
16.1
14.4986
13.0683
11.7876
10.6407
9.6162
8.70533
7.90076
7.19576
6.58362
6.05724
5.60911
5.23132
4.91579
4.65449
4.43971
4.26427
4.12167
4.00618
3.91289
3.83767
3.77706
3.72827
3.689
3.65738
3.6319
3.61134
3.59473
3.58133
3.57052
3.56184
3.55493
3.5495
3.54532
3.54218
3.53991
3.53835
3.53729
3.53658
3.53611
3.53582
3.53567
3.53566
3.53579
3.53606
3.53648
3.53703
3.53765
3.53829
3.53889
3.53942
3.53989
3.54033
3.54077
3.54125
3.54183
3.54255
3.54343
3.54443
3.54549
3.54657
3.54765
3.54875
3.54991
3.55121
3.5527
3.55448
3.55663
3.55928
3.56243
3.56603
3.56995
3.57407
3.57823
3.58212
3.58534
3.58755
3.58904
3.59087
3.59639
894.501
400.576
316.8
281.167
256.171
234.699
215.518
198.762
184.733
173.512
164.91
158.556
154.028
150.933
148.951
147.829
147.366
147.398
147.784
148.403
149.149
149.932
150.679
151.329
151.841
152.184
152.343
152.312
152.099
151.72
151.199
150.565
149.855
149.108
148.367
147.674
147.074
146.609
146.321
146.249
146.427
146.888
147.659
148.764
150.223
152.05
154.256
156.848
159.829
163.213
167.02
171.251
175.898
180.948
186.381
192.17
198.276
204.65
211.227
217.924
224.64
231.255
237.629
243.611
249.038
253.752
257.605
260.475
262.268
262.929
262.435
260.786
257.986
254.017
248.818
242.258
234.123
224.546
213.665
201.452
188.025
173.626
158.596
143.339
128.274
113.784
100.186
87.7092
76.4856
66.5621
57.914
50.4659
44.0922
38.6687
34.0652
30.1552
26.822
23.9627
21.4893
19.3289
17.4232
15.7269
14.206
12.8357
11.5984
10.4821
9.4782
8.58048
7.78369
7.08278
6.47236
5.94635
5.49796
5.11976
4.80396
4.54268
4.32826
4.1535
4.01184
3.89749
3.80545
3.73151
3.67216
3.62454
3.58629
3.55555
3.5308
3.51084
3.49472
3.48171
3.47122
3.4628
3.45607
3.45076
3.44661
3.44344
3.44105
3.43925
3.4379
3.43688
3.43612
3.43558
3.43522
3.43503
3.435
3.43511
3.43535
3.43566
3.436
3.43634
3.43665
3.43693
3.43721
3.4375
3.43783
3.43824
3.43875
3.43936
3.44005
3.44079
3.44155
3.44231
3.4431
3.44395
3.44491
3.44602
3.44734
3.44893
3.45087
3.45314
3.45571
3.4585
3.4614
3.46431
3.46703
3.46932
3.47105
3.47249
3.47448
3.47936
914.839
400.667
313.128
276.716
252.041
231.302
212.913
196.843
183.335
172.488
164.169
158.069
153.804
150.992
149.299
148.448
148.217
148.424
148.919
149.578
150.295
150.984
151.576
152.018
152.271
152.309
152.121
151.705
151.07
150.237
149.232
148.089
146.848
145.551
144.246
142.979
141.8
140.754
139.886
139.237
138.843
138.738
138.947
139.495
140.399
141.673
143.327
145.37
147.805
150.651
153.919
157.616
161.742
166.294
171.268
176.653
182.429
188.567
195.02
201.722
208.585
215.493
222.304
228.85
234.945
240.397
245.019
248.651
251.171
252.513
252.663
251.653
249.539
246.368
242.14
236.754
230.134
222.374
213.302
202.82
190.938
177.804
163.693
148.989
134.131
119.558
105.66
92.7403
81.0011
70.5451
61.3876
53.4764
46.6989
40.9362
36.0562
31.9261
28.4207
25.4276
22.8496
20.6055
18.6296
16.8705
15.2893
13.8575
12.5554
11.3697
10.2917
9.316
8.43866
7.65649
6.96608
6.3633
5.84304
5.39918
5.02477
4.7123
4.45405
4.24245
4.07033
3.93113
3.81905
3.72909
3.65701
3.59928
3.55305
3.51597
3.48618
3.4622
3.44285
3.42721
3.41456
3.40433
3.39607
3.38942
3.38409
3.37987
3.37653
3.37387
3.37175
3.37006
3.3687
3.36762
3.36678
3.36614
3.36568
3.36538
3.36521
3.36512
3.36509
3.36508
3.36508
3.36507
3.36508
3.36512
3.3652
3.36534
3.36556
3.36584
3.36619
3.36658
3.36699
3.36741
3.36785
3.36836
3.36895
3.36966
3.37053
3.37159
3.3729
3.37444
3.37617
3.37806
3.38002
3.38199
3.38384
3.38545
3.38679
3.3881
3.39003
3.39417
923.01
396.528
306.357
269.627
245.662
226.086
208.97
194.075
181.542
171.452
163.704
158.041
154.125
151.602
150.15
149.49
149.395
149.678
150.184
150.789
151.391
151.906
152.268
152.429
152.353
152.019
151.419
150.555
149.441
148.1
146.565
144.873
143.071
141.207
139.334
137.505
135.771
134.184
132.789
131.627
130.735
130.141
129.871
129.941
130.367
131.157
132.321
133.866
135.796
138.131
140.877
144.043
147.636
151.669
156.15
161.087
166.484
172.333
178.612
185.28
192.267
199.47
206.749
213.924
220.781
227.084
232.592
237.085
240.388
242.394
243.077
242.487
240.729
237.929
234.177
229.472
223.973
217.532
209.958
201.073
190.772
179.076
166.155
152.327
138.013
123.676
109.759
96.6323
84.5689
73.7314
64.1817
55.8969
48.7887
42.7483
37.6449
33.3415
29.7064
26.6188
23.9735
21.6812
19.6694
17.8804
16.2705
14.8074
13.4686
12.2392
11.1099
10.0757
9.13373
8.28243
7.52048
6.84595
6.25586
5.74594
5.31069
4.94357
4.63737
4.38454
4.17762
4.00955
3.87382
3.76471
3.67724
3.60723
3.55122
3.50636
3.47038
3.44144
3.41811
3.39924
3.38393
3.3715
3.36137
3.35313
3.34642
3.34096
3.3365
3.33285
3.32984
3.32735
3.32528
3.32356
3.32213
3.32095
3.31998
3.31918
3.31854
3.318
3.31754
3.31713
3.31675
3.3164
3.31609
3.31581
3.31557
3.3154
3.31529
3.31523
3.31523
3.31526
3.31531
3.31539
3.31549
3.31565
3.31588
3.31621
3.31665
3.31725
3.31802
3.31894
3.32001
3.32119
3.32242
3.32367
3.32487
3.32596
3.32696
3.32808
3.32979
3.33318
921.253
389.456
297.714
261.047
238.029
219.84
204.233
190.758
179.435
170.303
163.277
158.145
154.619
152.382
151.137
150.617
150.599
150.895
151.355
151.852
152.288
152.581
152.669
152.507
152.063
151.319
150.272
148.929
147.308
145.44
143.363
141.123
138.771
136.365
133.963
131.623
129.402
127.35
125.514
123.933
122.639
121.654
120.997
120.678
120.706
121.085
121.82
122.917
124.383
126.239
128.483
131.126
134.184
137.68
141.639
146.086
151.047
156.541
162.576
169.14
176.193
183.655
191.397
199.238
206.938
214.215
220.763
226.281
230.515
233.289
234.534
234.292
232.7
229.955
226.248
221.851
216.841
211.138
204.573
196.93
188.014
177.719
166.088
153.336
139.823
125.998
112.331
99.242
87.0627
76.0147
66.2102
57.6559
50.3025
44.0549
38.7871
34.3614
30.641
27.4992
24.8234
22.5176
20.5029
18.716
17.1083
15.6438
14.2969
13.0508
11.8953
10.825
9.83781
8.93352
8.11266
7.37549
6.72137
6.14828
5.65267
5.22954
4.87271
4.57521
4.32972
4.12894
3.96594
3.83437
3.72861
3.64384
3.57595
3.52157
3.47796
3.44291
3.41464
3.39176
3.37318
3.35802
3.34563
3.33545
3.32707
3.32015
3.3144
3.30961
3.30558
3.30218
3.29929
3.29683
3.29473
3.29292
3.29137
3.29003
3.28887
3.28784
3.28693
3.28609
3.28531
3.28458
3.28391
3.28328
3.28272
3.28221
3.28176
3.28136
3.28102
3.28071
3.28043
3.28018
3.27996
3.27979
3.27969
3.27967
3.27975
3.27994
3.28025
3.28069
3.28123
3.28186
3.28254
3.28324
3.28395
3.28464
3.28533
3.28623
3.28765
3.29033
911.195
380.304
288.002
251.728
229.797
213.082
199.063
187.092
177.066
168.975
162.738
158.181
155.061
153.106
152.045
151.634
151.658
151.935
152.317
152.68
152.925
152.976
152.772
152.27
151.444
150.279
148.777
146.952
144.829
142.445
139.847
137.089
134.232
131.339
128.476
125.704
123.082
120.661
118.483
116.583
114.984
113.703
112.747
112.122
111.827
111.864
112.234
112.94
113.991
115.406
117.181
119.327
121.866
124.829
128.252
132.179
136.656
141.73
147.44
153.811
160.84
168.481
176.631
185.119
193.693
202.028
209.749
216.462
221.81
225.52
227.451
227.606
226.13
223.273
219.431
214.899
209.842
204.298
198.176
191.279
183.366
174.238
163.813
152.18
139.609
126.498
113.308
100.483
88.3963
77.3182
67.4042
58.7022
51.2016
44.8261
39.4588
34.9644
31.2045
28.0481
25.3772
23.0905
21.1035
19.348
17.7711
16.3329
15.0052
13.7688
12.6122
11.5293
10.5183
9.5799
8.71605
7.92901
7.2204
6.59057
6.03824
5.5604
5.15242
4.80844
4.52171
4.28515
4.09166
3.93452
3.8076
3.70547
3.62346
3.55765
3.50481
3.46229
3.42797
3.40018
3.37758
3.3591
3.34393
3.33142
3.32105
3.3124
3.30515
3.29903
3.29384
3.28941
3.28561
3.28232
3.27947
3.27699
3.27481
3.27289
3.27119
3.26965
3.26826
3.26698
3.26579
3.26468
3.26365
3.26268
3.26177
3.26094
3.26016
3.25945
3.25879
3.25817
3.25759
3.25705
3.25655
3.2561
3.25571
3.25539
3.25516
3.25502
3.25497
3.25503
3.25516
3.25537
3.25564
3.25595
3.25629
3.25666
3.25711
3.25777
3.25888
3.26095
892.445
369.158
277.365
241.832
221.125
205.944
193.553
183.123
174.438
167.432
162.024
158.071
155.372
153.698
152.814
152.495
152.543
152.784
153.072
153.288
153.333
153.133
152.629
151.783
150.57
148.983
147.029
144.729
142.116
139.237
136.148
132.912
129.599
126.279
123.024
119.898
116.958
114.253
111.821
109.685
107.862
106.359
105.175
104.308
103.753
103.509
103.576
103.96
104.672
105.723
107.098
108.809
110.879
113.347
116.258
119.67
123.648
128.263
133.586
139.682
146.589
154.309
162.777
171.848
181.273
190.695
199.674
207.714
214.343
219.164
221.94
222.604
221.289
218.367
214.236
209.269
203.758
197.877
191.648
184.949
177.557
169.222
159.763
149.15
137.538
125.249
112.7
100.332
88.5338
77.6055
67.7321
59.0147
51.4744
45.0569
39.6589
35.1517
31.3983
28.2661
25.6341
23.3968
21.4655
19.7681
18.2478
16.8615
15.5779
14.3758
13.2419
12.1695
11.1562
10.2033
9.31374
8.49143
7.74003
7.06218
6.45899
5.92972
5.47172
5.08067
4.75094
4.47605
4.24914
4.06338
3.91233
3.7901
3.69152
3.61213
3.54821
3.49667
3.45501
3.42122
3.3937
3.37118
3.35264
3.33731
3.32455
3.31386
3.30485
3.29721
3.29069
3.2851
3.28027
3.27607
3.27241
3.26919
3.26635
3.26382
3.26156
3.25952
3.25765
3.25594
3.25435
3.25286
3.25148
3.25018
3.24897
3.24783
3.24677
3.24577
3.24484
3.24396
3.24313
3.24234
3.24161
3.24093
3.24031
3.23976
3.23929
3.23889
3.23858
3.23836
3.23821
3.23812
3.2381
3.23814
3.23823
3.23838
3.23864
3.23911
3.23995
3.24151
869.406
358.19
267.63
232.965
213.39
199.558
188.58
179.492
171.981
165.935
161.267
157.855
155.534
154.109
153.376
153.133
153.196
153.4
153.603
153.687
153.558
153.141
152.379
151.236
149.693
147.745
145.406
142.705
139.682
136.392
132.901
129.281
125.609
121.96
118.41
115.024
111.857
108.952
106.34
104.036
102.048
100.374
99.0049
97.9331
97.1502
96.6518
96.4401
96.5248
96.9261
97.6402
98.645
99.9496
101.58
103.575
105.988
108.885
112.347
116.465
121.341
127.077
133.76
141.442
150.11
159.665
169.878
180.368
190.646
200.105
208.15
214.234
218.011
219.319
218.332
215.382
210.89
205.308
199.051
192.429
185.609
178.582
171.195
163.201
154.364
144.551
133.804
122.345
110.527
98.7544
87.41
76.8005
67.1281
58.5401
51.082
44.721
39.3702
34.9109
31.2116
28.1414
25.5787
23.4165
21.5634
19.9448
18.5009
17.1861
15.9668
14.8195
13.7296
12.6889
11.6948
10.7482
9.85287
9.01363
8.23571
7.5237
6.88088
6.30874
5.80675
5.37246
5.00169
4.68902
4.42821
4.21271
4.03601
3.89202
3.77518
3.68063
3.60419
3.54237
3.49227
3.45157
3.41836
3.39114
3.36871
3.35013
3.33463
3.32163
3.31064
3.30131
3.29333
3.28647
3.28054
3.27537
3.27086
3.26688
3.26336
3.26023
3.25741
3.25487
3.25255
3.25043
3.24846
3.24664
3.24494
3.24335
3.24186
3.24046
3.23915
3.23792
3.23677
3.23567
3.23464
3.23366
3.23275
3.23189
3.2311
3.23038
3.22973
3.22915
3.22866
3.22823
3.22788
3.2276
3.22739
3.22725
3.22717
3.22718
3.2273
3.22761
3.22823
3.22939
842.947
347.735
259.072
225.398
206.868
194.193
184.402
176.433
169.903
164.663
160.62
157.666
155.663
154.447
153.838
153.654
153.725
153.895
154.026
154.003
153.732
153.139
152.169
150.788
148.978
146.74
144.093
141.07
137.721
134.107
130.302
126.385
122.439
118.546
114.779
111.207
107.88
104.837
102.102
99.6838
97.5826
95.7895
94.2923
93.0783
92.1372
91.4641
91.0608
90.9373
91.1144
91.5766
92.3022
93.2985
94.5909
96.2191
98.2382
100.72
103.753
107.446
111.921
117.31
123.745
131.326
140.092
149.996
160.849
172.248
183.689
194.445
203.827
211.122
215.865
217.91
217.327
214.398
209.556
203.319
196.199
188.633
180.92
173.181
165.36
157.261
148.637
139.293
129.177
118.418
107.289
96.1428
85.3306
75.1411
65.793
57.4494
50.1724
43.9487
38.708
34.3446
30.7349
27.7529
25.279
23.2064
21.4432
19.9134
18.5554
17.3219
16.1773
15.0966
14.0635
13.0688
12.1091
11.1849
10.3001
9.46013
8.67123
7.93944
7.2698
6.66574
6.12873