/*--------------------------------*- C++ -*----------------------------------*\
  =========                 |
  \\      /  F ield         | OpenFOAM: The Open Source CFD Toolbox
   \\    /   O peration     | Website:  https://openfoam.org
    \\  /    A nd           | Version:  9
     \\/     M anipulation  |
\*---------------------------------------------------------------------------*/
FoamFile
{
    format      ascii;
    class       volScalarField;
    location    "0.03";
    object      k;
}
// * * * * * * * * * * * * * * * * * * * * * * * * * * * * * * * * * * * * * //

dimensions      [0 2 -2 0 0 0 0];

internalField   nonuniform List<scalar> 
12225
(
0.26605
0.160058
0.10344
0.0736093
0.0573348
0.0477469
0.0415398
0.0372197
0.0341293
0.0319339
0.0303874
0.0292608
0.028352
0.0275153
0.0267219
0.0263108
0.0355593
0.121009
0.333493
0.248767
0.195642
0.163776
0.143285
0.128894
0.11802
0.109462
0.102693
0.0974504
0.0934913
0.0904987
0.088107
0.0859648
0.0839022
0.0828882
0.0960824
0.224442
0.344829
0.28516
0.238869
0.205878
0.182124
0.1645
0.151048
0.140641
0.132657
0.1267
0.122411
0.119386
0.117172
0.115322
0.113613
0.113701
0.132054
0.279769
0.349921
0.304523
0.264908
0.233457
0.208949
0.189818
0.174837
0.163175
0.154288
0.14776
0.143188
0.140124
0.138075
0.136562
0.135446
0.13702
0.159934
0.311617
0.353071
0.316321
0.282162
0.253133
0.229206
0.20973
0.194049
0.181652
0.172146
0.165178
0.160361
0.157246
0.15534
0.154175
0.153745
0.156707
0.181357
0.326285
0.355167
0.324077
0.294249
0.267763
0.245037
0.225918
0.210133
0.197428
0.187573
0.180312
0.175312
0.172161
0.170389
0.169577
0.169833
0.1739
0.198407
0.32963
0.356619
0.329424
0.303011
0.278905
0.257626
0.239265
0.223781
0.211103
0.201138
0.193731
0.188626
0.185467
0.183833
0.183363
0.184247
0.189097
0.212311
0.326254
0.357647
0.333216
0.309498
0.287512
0.26773
0.250339
0.235419
0.223016
0.213139
0.205723
0.200594
0.197464
0.195973
0.195826
0.197245
0.20259
0.22389
0.319537
0.358378
0.335946
0.314353
0.29421
0.275875
0.259544
0.245348
0.233395
0.223763
0.216458
0.211382
0.20832
0.206978
0.207121
0.208974
0.21458
0.233717
0.311805
0.3589
0.33792
0.318002
0.299434
0.282444
0.267187
0.2538
0.242413
0.233143
0.226049
0.221097
0.218139
0.21695
0.217345
0.219533
0.225226
0.242174
0.304488
0.35927
0.339347
0.320739
0.3035
0.287725
0.27351
0.260963
0.250211
0.241385
0.23458
0.229812
0.226992
0.225956
0.226565
0.229
0.234651
0.249516
0.298362
0.35951
0.340289
0.322613
0.306385
0.291596
0.278277
0.266494
0.256352
0.247982
0.241494
0.236937
0.23427
0.233375
0.234148
0.236737
0.242264
0.255364
0.294053
0.359686
0.34099
0.324054
0.308678
0.294765
0.28228
0.271242
0.261725
0.253845
0.247718
0.243413
0.240928
0.240187
0.241114
0.24383
0.249211
0.26072
0.290887
0.359827
0.341561
0.325266
0.310673
0.297608
0.285968
0.275715
0.266882
0.259558
0.253855
0.249857
0.247592
0.24702
0.24809
0.250888
0.256049
0.265974
0.288726
0.359932
0.341996
0.326223
0.312307
0.300018
0.289187
0.279717
0.271592
0.264867
0.259638
0.255994
0.25398
0.253589
0.254785
0.257617
0.262493
0.270925
0.287632
0.360005
0.342302
0.326921
0.313548
0.301916
0.291806
0.283066
0.275626
0.269503
0.264766
0.261498
0.259753
0.25954
0.260837
0.263652
0.268198
0.275301
0.287402
0.360048
0.342493
0.32738
0.314401
0.303274
0.293747
0.285622
0.278785
0.273209
0.268932
0.266019
0.264521
0.264456
0.265806
0.268545
0.272736
0.278724
0.287562
0.360063
0.342582
0.327622
0.314888
0.304098
0.294982
0.287311
0.280935
0.275786
0.271868
0.26922
0.267882
0.267874
0.269175
0.271741
0.275537
0.280616
0.287278
0.360048
0.342565
0.32764
0.314997
0.30436
0.295456
0.288039
0.281929
0.277022
0.273285
0.270729
0.269378
0.269246
0.270318
0.272547
0.275858
0.280169
0.285438
0.359998
0.342412
0.327357
0.314577
0.30382
0.294827
0.287356
0.28121
0.276261
0.272446
0.269748
0.268173
0.267726
0.2684
0.270156
0.272927
0.27661
0.281075
0.359917
0.342116
0.326754
0.313607
0.302467
0.293113
0.285322
0.278899
0.2737
0.269633
0.266656
0.26475
0.263907
0.264115
0.265345
0.26754
0.270608
0.274413
0.359767
0.341536
0.325559
0.311696
0.299824
0.289791
0.281406
0.27448
0.26885
0.264395
0.261036
0.258725
0.25743
0.257127
0.257786
0.259359
0.261768
0.264888
0.359491
0.340453
0.323387
0.308339
0.295331
0.284294
0.275072
0.267468
0.261289
0.25637
0.252586
0.249849
0.248097
0.247288
0.247384
0.248341
0.250091
0.252524
0.359005
0.338549
0.319717
0.302911
0.288355
0.276044
0.265825
0.257464
0.250711
0.245336
0.241157
0.238035
0.235878
0.234621
0.234217
0.234621
0.235771
0.237569
0.358188
0.335372
0.313877
0.294651
0.278167
0.264432
0.253198
0.24414
0.236911
0.231194
0.226734
0.223343
0.220893
0.2193
0.218509
0.218471
0.219132
0.2204
0.356874
0.330214
0.304869
0.282552
0.263848
0.248723
0.236661
0.227149
0.219694
0.213866
0.209333
0.205858
0.203286
0.201521
0.200499
0.200173
0.200493
0.201372
0.354802
0.321799
0.290997
0.264977
0.24408
0.227837
0.215441
0.205948
0.19868
0.193089
0.188776
0.18547
0.183001
0.181268
0.180209
0.179778
0.179927
0.180578
0.351527
0.307403
0.268952
0.238963
0.216476
0.199981
0.188056
0.179291
0.172783
0.167885
0.164162
0.161337
0.159245
0.157792
0.156921
0.156589
0.156758
0.157353
0.344188
0.279255
0.231185
0.198205
0.175782
0.160543
0.150176
0.143027
0.137969
0.134316
0.13164
0.129691
0.128326
0.127467
0.127065
0.127085
0.127492
0.128233
0.299787
0.213874
0.157914
0.121687
0.0984796
0.0837717
0.0745121
0.0688132
0.0651539
0.0626561
0.0608729
0.0595843
0.0586866
0.0581298
0.0578844
0.0579253
0.0582253
0.0587471
0.281533
0.307605
0.328154
0.336845
0.336458
0.329258
0.316643
0.300013
0.284119
0.26936
0.255933
0.245349
0.24011
0.242491
0.25243
0.265972
0.277583
0.284431
0.287613
0.293442
0.308391
0.32855
0.352004
0.377701
0.404959
0.433262
0.462197
0.491431
0.520699
0.54979
0.578544
0.606839
0.634585
0.661716
0.688185
0.713959
0.739017
0.763345
0.786935
0.809787
0.831903
0.853291
0.87397
0.893964
0.913315
0.932083
0.950357
0.968268
0.986004
1.00383
1.02064
1.03619
1.05041
1.0632
1.0744
1.08385
1.09136
1.09675
1.0998
1.10032
1.09812
1.093
1.0848
1.07336
1.05857
1.04034
1.01863
0.993447
0.964857
0.932975
0.897979
0.860107
0.819661
0.776997
0.732525
0.6867
0.640016
0.593004
0.546258
0.499475
0.457029
0.418887
0.383178
0.349559
0.318055
0.288748
0.261707
0.23696
0.214522
0.194385
0.177611
0.165332
0.158149
0.158709
0.159499
0.155748
0.155245
0.154937
0.156168
0.15293
0.147016
0.140257
0.13366
0.127678
0.122464
0.11802
0.114281
0.111161
0.108575
0.106442
0.104682
0.103218
0.10198
0.100915
0.0999891
0.0991826
0.0984818
0.0978769
0.0973614
0.0969307
0.0965788
0.0962924
0.0960497
0.0958243
0.0955947
0.0953522
0.0951004
0.0948469
0.0945978
0.0943581
0.0941341
0.093933
0.0937593
0.0936103
0.0934736
0.093325
0.0931478
0.0929387
0.0927068
0.0924635
0.0922177
0.0919781
0.0917543
0.0915544
0.091379
0.0912177
0.0910512
0.090858
0.0906283
0.0903739
0.0901085
0.0898405
0.0895769
0.0893277
0.0891042
0.0889124
0.0887463
0.0885859
0.0884017
0.088172
0.0879128
0.0876418
0.0873664
0.0870918
0.0868269
0.086585
0.0863768
0.0862013
0.0860434
0.0858754
0.0856677
0.0854186
0.085154
0.0848892
0.084639
0.0844423
0.0843745
0.0844696
0.0847103
0.0848049
0.427128
0.504944
0.544904
0.55994
0.559204
0.549397
0.535055
0.520116
0.505804
0.496484
0.499971
0.523916
0.57179
0.639307
0.715648
0.78414
0.831379
0.861412
0.880138
0.893264
0.904153
0.913769
0.922434
0.930462
0.938319
0.946521
0.955545
0.965774
0.977489
0.990875
1.00604
1.02302
1.04182
1.0624
1.08471
1.10869
1.13427
1.16137
1.18993
1.21987
1.25111
1.28357
1.31716
1.35178
1.38732
1.42365
1.46064
1.49814
1.536
1.57345
1.61081
1.64804
1.68487
1.72094
1.75585
1.78913
1.82031
1.84885
1.8742
1.89578
1.91299
1.92527
1.93205
1.9328
1.92706
1.91442
1.89456
1.86728
1.83247
1.79018
1.74058
1.68398
1.62086
1.5518
1.47753
1.39891
1.31685
1.23226
1.14588
1.05751
0.970024
0.888067
0.81099
0.738764
0.671522
0.60939
0.552418
0.50055
0.453631
0.411407
0.373475
0.339968
0.310735
0.286178
0.264761
0.246037
0.232259
0.219226
0.208518
0.198506
0.188443
0.178664
0.169605
0.16152
0.154491
0.148495
0.14345
0.139249
0.135781
0.132936
0.130609
0.128705
0.127139
0.125841
0.12476
0.123857
0.123105
0.12248
0.121965
0.121547
0.121213
0.120948
0.120732
0.120545
0.120368
0.120195
0.120022
0.119851
0.119683
0.119521
0.119364
0.119218
0.119083
0.118958
0.118838
0.118716
0.11858
0.118423
0.118249
0.118063
0.117871
0.117677
0.117488
0.117309
0.117143
0.116988
0.116835
0.116672
0.11649
0.116292
0.116084
0.115872
0.115659
0.115451
0.115255
0.115077
0.114916
0.114766
0.114612
0.114437
0.114245
0.114044
0.113839
0.113634
0.113432
0.113242
0.113072
0.112925
0.112799
0.112682
0.112543
0.112382
0.112214
0.112047
0.111886
0.111761
0.111743
0.111857
0.112047
0.111856
0.510819
0.601417
0.665071
0.696088
0.705175
0.702149
0.695265
0.692699
0.694992
0.711064
0.750066
0.812963
0.892127
0.973437
1.04264
1.09052
1.11574
1.12394
1.12259
1.11783
1.11338
1.11098
1.11141
1.11505
1.12209
1.13253
1.14625
1.16302
1.18253
1.20442
1.22834
1.25397
1.281
1.30921
1.33843
1.36854
1.39948
1.43125
1.46386
1.49736
1.53181
1.56727
1.6038
1.64144
1.68021
1.7201
1.76109
1.80312
1.8461
1.88976
1.93413
1.97898
2.02396
2.06864
2.11251
2.155
2.19549
2.23331
2.26774
2.29804
2.32347
2.34326
2.3567
2.36308
2.36177
2.35223
2.334
2.30675
2.27028
2.22456
2.16969
2.10597
2.03387
1.95402
1.86721
1.77439
1.67659
1.57487
1.47016
1.3628
1.25578
1.1541
1.05766
0.966712
0.881561
0.802475
0.729607
0.662973
0.602461
0.547821
0.498667
0.454608
0.41549
0.380932
0.350275
0.323235
0.29989
0.279164
0.260694
0.244332
0.229536
0.216087
0.203991
0.193286
0.183966
0.175969
0.169196
0.163523
0.158816
0.154941
0.15177
0.149182
0.14707
0.145344
0.14393
0.142771
0.141821
0.141044
0.140411
0.1399
0.139491
0.139168
0.138909
0.138695
0.138507
0.138335
0.138173
0.138019
0.13787
0.137726
0.137586
0.137451
0.137323
0.137202
0.137085
0.136968
0.136842
0.136702
0.136547
0.13638
0.136205
0.136023
0.13584
0.135662
0.135493
0.135334
0.135181
0.135025
0.134857
0.134676
0.134486
0.134291
0.134091
0.133892
0.133699
0.133519
0.133355
0.133204
0.133057
0.132901
0.132734
0.132559
0.132382
0.132202
0.132025
0.131856
0.131703
0.131575
0.131472
0.131389
0.131298
0.131201
0.131106
0.131015
0.130926
0.130841
0.130795
0.130806
0.13083
0.130682
0.57104
0.71602
0.816181
0.862103
0.876548
0.876777
0.87613
0.878114
0.890147
0.919158
0.967622
1.03102
1.09882
1.15882
1.20218
1.22623
1.23413
1.23223
1.22691
1.22278
1.22236
1.22664
1.23574
1.24936
1.26695
1.28788
1.3115
1.33715
1.36426
1.39234
1.421
1.44996
1.47905
1.50818
1.53737
1.56668
1.59626
1.62627
1.65689
1.68832
1.72077
1.75441
1.7894
1.8259
1.86399
1.90374
1.94514
1.98816
2.03265
2.07847
2.12551
2.17346
2.22194
2.27049
2.31856
2.36554
2.41075
2.45347
2.49293
2.52833
2.55884
2.58366
2.60198
2.61302
2.61609
2.61055
2.59587
2.57161
2.5375
2.49339
2.4393
2.3754
2.30206
2.21982
2.12938
2.03161
1.9275
1.8181
1.70436
1.58684
1.4696
1.35675
1.24862
1.14573
1.04864
0.957811
0.873561
0.796035
0.725207
0.660884
0.602714
0.550247
0.503299
0.46134
0.423833
0.390378
0.360596
0.333984
0.31015
0.288852
0.269739
0.252557
0.237179
0.223543
0.211585
0.20122
0.192335
0.184801
0.178474
0.173205
0.168848
0.165262
0.16232
0.159907
0.15793
0.156309
0.154981
0.153894
0.153005
0.152281
0.151696
0.151225
0.150846
0.150536
0.150275
0.150048
0.149846
0.149663
0.149495
0.149338
0.149189
0.149049
0.148918
0.148795
0.148679
0.148565
0.148447
0.148319
0.148179
0.148028
0.147868
0.147701
0.147532
0.147365
0.147205
0.147056
0.146913
0.14677
0.146619
0.146457
0.146287
0.14611
0.145929
0.145746
0.145567
0.145398
0.145244
0.145105
0.144972
0.144835
0.14469
0.14454
0.144387
0.144232
0.144079
0.143932
0.143801
0.143694
0.143615
0.143557
0.143502
0.143446
0.143393
0.14334
0.143276
0.143184
0.14307
0.142961
0.142857
0.142785
0.592991
0.851244
0.988537
1.04861
1.06919
1.07171
1.06591
1.0617
1.06843
1.0904
1.12649
1.1706
1.21416
1.24967
1.2734
1.28597
1.29114
1.2936
1.2973
1.30465
1.31666
1.33333
1.35414
1.37832
1.40502
1.43344
1.46285
1.49264
1.52232
1.55156
1.58012
1.60794
1.63501
1.66145
1.68744
1.71321
1.73905
1.76523
1.79208
1.81987
1.84889
1.87937
1.91154
1.94557
1.98155
2.01954
2.05953
2.10142
2.14504
2.19032
2.23713
2.28516
2.33404
2.38329
2.43238
2.4807
2.52758
2.5723
2.61409
2.65215
2.68566
2.7138
2.73576
2.75076
2.75806
2.757
2.74699
2.72756
2.69833
2.65907
2.60966
2.55014
2.48069
2.40168
2.31361
2.21715
2.11311
2.00237
1.88583
1.76411
1.6428
1.52434
1.40944
1.29895
1.19369
1.09435
1.00147
0.915367
0.836148
0.763734
0.697863
0.638144
0.58437
0.536001
0.492513
0.453433
0.418297
0.386667
0.358171
0.332507
0.309373
0.288522
0.269793
0.253076
0.23828
0.225306
0.214041
0.204357
0.19611
0.189148
0.183315
0.178458
0.174433
0.171106
0.168363
0.166102
0.164241
0.16271
0.161452
0.160419
0.159574
0.158886
0.158325
0.157865
0.157482
0.157158
0.156879
0.156636
0.156421
0.156229
0.156056
0.155898
0.155755
0.155625
0.155506
0.155393
0.155281
0.155163
0.155037
0.154903
0.154762
0.154616
0.154467
0.154321
0.154181
0.154049
0.153924
0.1538
0.15367
0.153532
0.153386
0.153234
0.153078
0.15292
0.152765
0.152619
0.152485
0.152365
0.152252
0.152137
0.152016
0.151891
0.151764
0.151635
0.151508
0.151387
0.15128
0.151195
0.151136
0.151095
0.15106
0.151025
0.15099
0.150947
0.150878
0.15076
0.150585
0.150389
0.150213
0.150203
0.651084
0.994269
1.16495
1.24037
1.26697
1.26278
1.24469
1.22711
1.21895
1.22367
1.23973
1.26223
1.2855
1.30548
1.32087
1.3328
1.3437
1.35607
1.37162
1.39107
1.41437
1.44095
1.46999
1.50064
1.53207
1.56356
1.59453
1.62453
1.65326
1.68056
1.70637
1.73079
1.75397
1.77615
1.79764
1.81878
1.83993
1.86145
1.8837
1.90703
1.93175
1.95812
1.98636
2.01666
2.0491
2.08372
2.1205
2.15932
2.19999
2.24249
2.28675
2.33249
2.37937
2.42695
2.47471
2.52209
2.56845
2.61311
2.65533
2.69437
2.72943
2.75971
2.78444
2.80284
2.8142
2.81785
2.81319
2.79971
2.77698
2.74467
2.70257
2.65055
2.58862
2.51688
2.43559
2.34512
2.246
2.13882
2.02423
1.90352
1.78284
1.66307
1.54531
1.43071
1.32037
1.21524
1.11608
1.02341
0.937531
0.858498
0.786179
0.720282
0.660582
0.60659
0.557802
0.513722
0.473869
0.437796
0.405113
0.375487
0.348621
0.324271
0.302259
0.282456
0.264759
0.249067
0.235275
0.223263
0.212896
0.204028
0.196505
0.190167
0.184861
0.180439
0.176767
0.173725
0.171211
0.169134
0.167421
0.166009
0.164848
0.163895
0.163112
0.162467
0.161933
0.161486
0.161107
0.160785
0.160507
0.160267
0.160057
0.159872
0.15971
0.159567
0.159439
0.159323
0.159211
0.159099
0.158984
0.158865
0.158741
0.158615
0.158488
0.158363
0.158244
0.158132
0.158025
0.15792
0.15781
0.157695
0.157573
0.157447
0.157317
0.157186
0.157057
0.156936
0.156825
0.156724
0.15663
0.156535
0.156436
0.156334
0.15623
0.156125
0.156023
0.155925
0.15584
0.155773
0.155727
0.155696
0.155669
0.155642
0.155609
0.155561
0.155479
0.15534
0.155134
0.154899
0.154698
0.154721
0.616347
1.10892
1.32217
1.41456
1.43998
1.42808
1.39928
1.36809
1.34394
1.33107
1.32925
1.33554
1.34641
1.35942
1.37367
1.38952
1.4078
1.42922
1.45402
1.48196
1.51242
1.5446
1.57766
1.61079
1.64329
1.6746
1.70428
1.73205
1.75775
1.78138
1.80301
1.82283
1.84112
1.85819
1.87443
1.89023
1.906
1.92215
1.93907
1.95713
1.97663
1.99788
2.02108
2.04641
2.07397
2.1038
2.13586
2.17006
2.20621
2.24433
2.28443
2.32628
2.36958
2.41393
2.45887
2.50387
2.54835
2.59169
2.63319
2.67215
2.70782
2.73946
2.7663
2.78762
2.80273
2.81097
2.81175
2.80457
2.78898
2.7646
2.73115
2.68838
2.63613
2.57428
2.50279
2.4217
2.33115
2.23134
2.12241
2.00788
1.89139
1.77385
1.65655
1.5409
1.42825
1.31982
1.2166
1.11933
1.02852
0.944386
0.86695
0.796034
0.731411
0.67267
0.61935
0.570966
0.527033
0.487091
0.45073
0.417591
0.387365
0.359801
0.33471
0.311954
0.291425
0.273031
0.256677
0.242262
0.229666
0.21876
0.209399
0.201427
0.194688
0.189027
0.184296
0.180358
0.17709
0.174385
0.17215
0.170305
0.168785
0.167533
0.166501
0.165651
0.164947
0.164361
0.16387
0.163457
0.163107
0.162809
0.162554
0.162335
0.162147
0.161984
0.161842
0.161716
0.1616
0.161489
0.161379
0.161268
0.161157
0.161046
0.160936
0.160829
0.160727
0.160631
0.16054
0.16045
0.160357
0.16026
0.160158
0.160053
0.159946
0.159838
0.159733
0.159633
0.159541
0.159457
0.159378
0.159298
0.159216
0.159132
0.159047
0.158962
0.158878
0.1588
0.158731
0.158676
0.158638
0.158609
0.158584
0.158556
0.158518
0.158463
0.158372
0.158225
0.158015
0.15778
0.157586
0.15762
0.748559
1.23981
1.45139
1.54613
1.57296
1.5591
1.52452
1.4842
1.44852
1.42308
1.40934
1.406
1.41081
1.42176
1.43761
1.45771
1.48168
1.5091
1.5394
1.57185
1.60558
1.63975
1.67354
1.70626
1.73731
1.76627
1.79284
1.81683
1.83822
1.85708
1.87359
1.88802
1.90068
1.91196
1.92229
1.9321
1.94182
1.9519
1.96274
1.97472
1.98817
2.00339
2.02061
2.04001
2.0617
2.08574
2.11212
2.14076
2.17153
2.20445
2.2396
2.27681
2.31581
2.35624
2.3977
2.43971
2.48172
2.52317
2.56342
2.6018
2.6376
2.67011
2.6986
2.72237
2.74075
2.75311
2.75889
2.75759
2.74881
2.73218
2.7074
2.67419
2.63229
2.58141
2.52128
2.45158
2.37205
2.28243
2.18265
2.07772
1.96853
1.85624
1.74233
1.62839
1.51599
1.40658
1.30143
1.20149
1.10749
1.01983
0.938679
0.864001
0.795572
0.733082
0.676126
0.62425
0.576975
0.533838
0.494409
0.458306
0.425202
0.394834
0.367
0.341555
0.318391
0.297426
0.278583
0.261783
0.246933
0.233925
0.222633
0.212918
0.204629
0.197609
0.191704
0.186765
0.182653
0.179241
0.176419
0.174088
0.172167
0.170584
0.16928
0.168205
0.167317
0.166581
0.165967
0.165455
0.165025
0.164662
0.164356
0.164097
0.163876
0.163688
0.163526
0.163385
0.163259
0.163142
0.163031
0.162924
0.162819
0.162717
0.162618
0.162523
0.162433
0.162348
0.162267
0.162187
0.162106
0.162023
0.161936
0.161847
0.161756
0.161666
0.161578
0.161495
0.161417
0.161345
0.161276
0.161208
0.161138
0.161066
0.160994
0.160922
0.160853
0.160787
0.16073
0.160682
0.160646
0.160617
0.160589
0.160557
0.160514
0.160453
0.160359
0.160216
0.160022
0.159809
0.159638
0.159669
0.644832
1.27575
1.52086
1.63101
1.66599
1.65569
1.62101
1.57761
1.53671
1.50507
1.48547
1.47776
1.48038
1.49141
1.50914
1.53221
1.55949
1.58994
1.62257
1.65642
1.69054
1.72411
1.75636
1.78669
1.81461
1.83978
1.86199
1.88115
1.89731
1.9106
1.92127
1.92962
1.93604
1.94093
1.94475
1.94798
1.95107
1.95449
1.95866
1.96398
1.97081
1.97946
1.99018
2.00317
2.01858
2.03648
2.0569
2.0798
2.10509
2.13279
2.163
2.19559
2.23032
2.26687
2.30487
2.34389
2.38344
2.42299
2.46195
2.49967
2.5355
2.56871
2.59861
2.62448
2.64566
2.66151
2.67149
2.67515
2.6721
2.66208
2.64483
2.62015
2.58778
2.54739
2.49857
2.44075
2.37322
2.29506
2.20802
2.11443
2.01478
1.91018
1.80211
1.69228
1.58243
1.47421
1.36912
1.26837
1.17287
1.08325
0.999827
0.922687
0.851644
0.786493
0.726898
0.672443
0.622667
0.577107
0.535319
0.496902
0.461511
0.428863
0.398742
0.370994
0.345511
0.322221
0.301066
0.281994
0.264942
0.249835
0.236576
0.225049
0.21512
0.20664
0.199457
0.193415
0.188364
0.184162
0.180681
0.177805
0.175435
0.173483
0.171877
0.170554
0.169464
0.168563
0.167816
0.167194
0.166676
0.166242
0.165878
0.165571
0.165312
0.165093
0.164906
0.164745
0.164603
0.164475
0.164358
0.164247
0.164143
0.164044
0.16395
0.163861
0.163777
0.163698
0.163622
0.163549
0.163475
0.1634
0.163322
0.163244
0.163165
0.163087
0.163011
0.162939
0.16287
0.162806
0.162744
0.162683
0.16262
0.162557
0.162493
0.16243
0.162369
0.162312
0.162261
0.162217
0.162181
0.162149
0.162117
0.16208
0.162033
0.161969
0.161877
0.161747
0.161577
0.161395
0.161253
0.161276
0.670355
1.30398
1.56069
1.68123
1.72507
1.72171
1.69179
1.65098
1.61077
1.57856
1.5579
1.54944
1.55203
1.56383
1.5829
1.60748
1.63606
1.66729
1.69999
1.7331
1.76567
1.7969
1.8261
1.85272
1.87636
1.89675
1.91373
1.9273
1.93755
1.94465
1.9489
1.95065
1.95031
1.94834
1.94523
1.94148
1.93758
1.93403
1.93128
1.92977
1.92988
1.93193
1.93622
1.94296
1.95231
1.9644
1.97926
1.99689
2.01722
2.04027
2.06611
2.09461
2.12556
2.15867
2.19361
2.22999
2.26739
2.30532
2.34322
2.38051
2.41653
2.45057
2.4819
2.50978
2.53349
2.55237
2.56582
2.57339
2.57475
2.5697
2.55812
2.53995
2.51509
2.48333
2.44427
2.39723
2.34125
2.27527
2.20172
2.12043
2.03173
1.93655
1.83625
1.7325
1.62714
1.522
1.41878
1.31891
1.22353
1.13344
1.04913
0.970814
0.89836
0.831673
0.770486
0.714425
0.663052
0.615909
0.572543
0.532538
0.49553
0.461215
0.429362
0.399801
0.372423
0.347161
0.323975
0.302839
0.283726
0.266597
0.251393
0.238032
0.226405
0.216386
0.207832
0.200589
0.194502
0.18942
0.185199
0.181707
0.178829
0.176459
0.174512
0.172911
0.171594
0.170508
0.169611
0.168868
0.168251
0.167736
0.167306
0.166945
0.166641
0.166385
0.166167
0.165981
0.165818
0.165674
0.165545
0.165426
0.165317
0.165215
0.16512
0.165032
0.164949
0.164871
0.164797
0.164726
0.164655
0.164584
0.164512
0.16444
0.164368
0.164298
0.164229
0.164163
0.1641
0.16404
0.163982
0.163925
0.163866
0.163807
0.163749
0.163691
0.163635
0.163583
0.163535
0.163492
0.163454
0.163419
0.163383
0.163343
0.163293
0.163228
0.163142
0.163027
0.162883
0.162733
0.162618
0.162634
0.688447
1.31265
1.57467
1.70314
1.75623
1.76219
1.74073
1.70689
1.67192
1.64329
1.62495
1.61802
1.62177
1.63451
1.65431
1.67929
1.70776
1.73827
1.76957
1.80057
1.83036
1.85815
1.88333
1.9054
1.92401
1.93895
1.95013
1.95757
1.96142
1.9619
1.95934
1.95414
1.94676
1.93769
1.92747
1.91665
1.90576
1.89534
1.88588
1.87785
1.87166
1.86766
1.86614
1.86735
1.87145
1.87856
1.88873
1.90196
1.91819
1.93742
1.95965
1.98473
2.01246
2.04261
2.07489
2.10898
2.14453
2.18111
2.21824
2.25538
2.29189
2.32706
2.36013
2.39028
2.41667
2.43853
2.45516
2.46602
2.47073
2.46915
2.46128
2.44728
2.4273
2.4014
2.3694
2.33071
2.28425
2.2303
2.16902
2.09974
2.0224
1.93752
1.84617
1.7499
1.65054
1.55002
1.45019
1.35269
1.25885
1.16966
1.08576
1.00747
0.934766
0.867646
0.80591
0.749227
0.697182
0.649321
0.605192
0.564364
0.526454
0.491141
0.458172
0.427364
0.398598
0.371808
0.346967
0.324072
0.303129
0.284138
0.267083
0.251923
0.238589
0.226983
0.216985
0.208454
0.201238
0.195181
0.190132
0.185945
0.182488
0.179642
0.177303
0.175383
0.173806
0.172509
0.171441
0.170558
0.169827
0.16922
0.168713
0.168289
0.167933
0.167633
0.167379
0.167161
0.166973
0.166808
0.166661
0.16653
0.166411
0.166301
0.166201
0.166108
0.166022
0.165942
0.165866
0.165794
0.165723
0.165653
0.165583
0.165513
0.165445
0.165378
0.165312
0.16525
0.165189
0.165132
0.165075
0.165019
0.164963
0.164906
0.16485
0.164795
0.164742
0.164691
0.164644
0.164601
0.164562
0.164523
0.164484
0.16444
0.164389
0.164326
0.164247
0.164147
0.164027
0.163906
0.163814
0.163823
0.698924
1.30552
1.56892
1.70357
1.76588
1.7825
1.77178
1.74774
1.72094
1.69857
1.68468
1.68072
1.6863
1.70004
1.72015
1.74479
1.77229
1.8012
1.83023
1.85834
1.88462
1.90835
1.92895
1.94598
1.95913
1.96824
1.97327
1.97429
1.97148
1.96512
1.9556
1.94336
1.9289
1.91281
1.89565
1.87804
1.86056
1.8438
1.82829
1.81452
1.80292
1.79384
1.78758
1.78434
1.78429
1.7875
1.794
1.80378
1.81676
1.83291
1.85213
1.87427
1.89916
1.92661
1.9564
1.98831
2.02208
2.05738
2.09384
2.13098
2.16823
2.20489
2.24014
2.27308
2.30272
2.32807
2.34823
2.36243
2.37018
2.37124
2.36569
2.35386
2.33621
2.31321
2.28506
2.25147
2.2122
2.16755
2.11636
2.05771
1.99105
1.9164
1.83442
1.74637
1.65396
1.55913
1.46385
1.36991
1.27881
1.1917
1.10936
1.03217
0.960286
0.893771
0.832483
0.776126
0.724307
0.676582
0.632494
0.591605
0.553517
0.51789
0.484453
0.453003
0.42341
0.395602
0.369557
0.34529
0.322834
0.302227
0.283495
0.266644
0.251651
0.238459
0.226979
0.217095
0.208669
0.201551
0.195585
0.190617
0.186504
0.183113
0.180324
0.178035
0.176156
0.174614
0.173345
0.1723
0.171436
0.170719
0.170123
0.169625
0.169208
0.168856
0.168558
0.168303
0.168084
0.167893
0.167725
0.167576
0.167442
0.167321
0.167211
0.16711
0.167017
0.166931
0.166851
0.166774
0.1667
0.166628
0.166557
0.166488
0.16642
0.166353
0.166289
0.166227
0.166167
0.166109
0.166052
0.165996
0.165941
0.165885
0.16583
0.165776
0.165723
0.165674
0.165626
0.165582
0.16554
0.165499
0.165457
0.165411
0.16536
0.1653
0.165228
0.165142
0.165044
0.164946
0.164873
0.164877
0.703055
1.28688
1.54903
1.68851
1.75962
1.78731
1.78837
1.77555
1.75847
1.74386
1.73565
1.7355
1.74336
1.75817
1.77838
1.80233
1.82844
1.85528
1.88163
1.90647
1.92893
1.94832
1.96412
1.97591
1.98344
1.9866
1.98539
1.97992
1.97043
1.95728
1.94089
1.92178
1.90054
1.87779
1.85421
1.83044
1.80714
1.78493
1.76437
1.74596
1.73012
1.71716
1.70736
1.70086
1.69777
1.69811
1.70187
1.70897
1.71933
1.73289
1.74945
1.76887
1.79101
1.81574
1.84293
1.87249
1.90425
1.93806
1.97365
2.0107
2.04871
2.08705
2.12488
2.16121
2.19486
2.22459
2.24917
2.26751
2.27878
2.28255
2.27881
2.268
2.25084
2.22822
2.20088
2.16915
2.13413
2.09509
2.05095
2.00054
1.94289
1.87747
1.80442
1.7246
1.63949
1.55093
1.46093
1.3714
1.28395
1.19987
1.12003
1.04488
0.974754
0.909776
0.849845
0.794691
0.743937
0.697146
0.653862
0.613639
0.576069
0.540795
0.507527
0.476045
0.446203
0.417919
0.39117
0.36598
0.3424
0.320499
0.300344
0.281988
0.265455
0.250737
0.237788
0.226524
0.216834
0.208582
0.201619
0.195789
0.190941
0.186931
0.183626
0.18091
0.178681
0.176851
0.175348
0.174111
0.17309
0.172246
0.171544
0.170958
0.170467
0.170054
0.169704
0.169406
0.169149
0.168927
0.168732
0.168561
0.168408
0.168271
0.168148
0.168035
0.167933
0.167838
0.16775
0.167667
0.167588
0.167512
0.167438
0.167366
0.167296
0.167228
0.167163
0.1671
0.167039
0.166979
0.166922
0.166865
0.166808
0.166752
0.166697
0.166643
0.166591
0.166541
0.166493
0.166448
0.166404
0.166361
0.166317
0.166271
0.16622
0.166163
0.166099
0.166025
0.165944
0.165865
0.165807
0.165807
0.702016
1.26011
1.51929
1.66251
1.74177
1.78028
1.79323
1.79201
1.78524
1.77903
1.77711
1.78125
1.7917
1.80771
1.82803
1.8512
1.87578
1.90044
1.92401
1.94551
1.96412
1.97918
1.9902
1.99682
1.99882
1.99613
1.98881
1.97703
1.96109
1.94142
1.91853
1.89301
1.86552
1.83679
1.80755
1.77852
1.75041
1.72385
1.69941
1.67756
1.65869
1.64306
1.63086
1.62216
1.61698
1.61528
1.61697
1.62195
1.63009
1.64131
1.65536
1.67208
1.69138
1.7132
1.73753
1.76435
1.79369
1.82553
1.8598
1.89634
1.93483
1.97475
2.01531
2.05544
2.09382
2.1289
2.15904
2.1827
2.1986
2.20591
2.20438
2.19438
2.17679
2.15289
2.12399
2.09197
2.05751
2.02037
1.97979
1.93458
1.88348
1.82548
1.76017
1.68791
1.60982
1.52759
1.44317
1.35851
1.27531
1.19494
1.11831
1.04597
0.978397
0.915762
0.857983
0.804807
0.755867
0.710729
0.668939
0.630045
0.59363
0.559325
0.526825
0.495892
0.466364
0.438146
0.411207
0.385571
0.361302
0.33849
0.317235
0.297631
0.279751
0.263636
0.249289
0.23667
0.225702
0.216274
0.208254
0.201492
0.195835
0.191134
0.187246
0.184043
0.181409
0.179246
0.177468
0.176006
0.174801
0.173804
0.172976
0.172287
0.17171
0.171224
0.170813
0.170463
0.170162
0.169902
0.169676
0.169477
0.169301
0.169145
0.169005
0.168878
0.168763
0.168657
0.168559
0.168468
0.168382
0.1683
0.168221
0.168145
0.168072
0.168001
0.167933
0.167868
0.167805
0.167743
0.167684
0.167625
0.167568
0.167511
0.167456
0.167402
0.167349
0.167299
0.16725
0.167204
0.167159
0.167114
0.16707
0.167023
0.166975
0.166922
0.166864
0.166801
0.166734
0.166671
0.166624
0.16662
0.69664
1.22749
1.48264
1.62875
1.7154
1.7641
1.78849
1.79863
1.80213
1.80443
1.80903
1.81772
1.83098
1.84838
1.86894
1.89144
1.91458
1.93716
1.95808
1.9764
1.99135
2.0023
2.00878
2.01049
2.00725
1.99903
1.98594
1.96824
1.9463
1.92062
1.89179
1.86051
1.82753
1.79366
1.7597
1.72643
1.69458
1.66479
1.63762
1.61347
1.59267
1.57539
1.56172
1.55164
1.54509
1.54195
1.54208
1.54531
1.55151
1.56055
1.57216
1.58618
1.60255
1.62128
1.64244
1.66615
1.69257
1.72187
1.75419
1.7896
1.82801
1.86906
1.91213
1.95614
1.99965
2.04082
2.07758
2.10782
2.12967
2.14174
2.14338
2.13471
2.11664
2.09073
2.0595
2.02486
1.98799
1.94943
1.90894
1.86562
1.81814
1.76517
1.70579
1.63983
1.56797
1.49164
1.41267
1.33298
1.25432
1.17806
1.10509
1.03616
0.9718
0.912173
0.857214
0.806672
0.760183
0.717316
0.677613
0.640623
0.605921
0.57313
0.541932
0.512075
0.483379
0.455736
0.429103
0.4035
0.378993
0.355685
0.333699
0.313163
0.294192
0.276876
0.261267
0.247375
0.235164
0.22456
0.215454
0.207713
0.20119
0.195736
0.191202
0.187452
0.184359
0.181814
0.17972
0.177996
0.176574
0.175399
0.174424
0.173612
0.172933
0.172363
0.17188
0.171468
0.171116
0.170813
0.170549
0.170319
0.170116
0.169936
0.169776
0.169632
0.169502
0.169383
0.169274
0.169172
0.169078
0.168988
0.168904
0.168823
0.168745
0.168671
0.1686
0.168531
0.168465
0.168402
0.16834
0.16828
0.168222
0.168164
0.168108
0.168054
0.168001
0.167951
0.167902
0.167855
0.167809
0.167765
0.16772
0.167676
0.167629
0.167581
0.16753
0.167476
0.16742
0.167369
0.167332
0.167327
0.686682
1.18903
1.43959
1.58817
1.68174
1.74019
1.77567
1.79695
1.81063
1.82152
1.83283
1.84633
1.86269
1.88173
1.90276
1.92477
1.94667
1.96736
1.98582
2.00118
2.01271
2.0198
2.02203
2.01913
2.01095
1.99754
1.97906
1.95584
1.92833
1.89713
1.86293
1.82652
1.78876
1.75053
1.7127
1.67609
1.64145
1.60939
1.58041
1.55486
1.53294
1.51476
1.50027
1.48939
1.48195
1.47778
1.4767
1.47854
1.48314
1.49033
1.49975
1.51125
1.5248
1.54045
1.55836
1.57874
1.6019
1.62819
1.65799
1.69162
1.72926
1.77084
1.81593
1.86358
1.91229
1.95997
2.00411
2.04199
2.07102
2.08914
2.09509
2.08866
2.07058
2.04326
2.00903
1.97019
1.92873
1.88597
1.84244
1.79774
1.75077
1.7001
1.64444
1.5831
1.51628
1.44505
1.37105
1.29614
1.22203
1.15008
1.08111
1.0161
0.955512
0.899494
0.847958
0.800645
0.757187
0.717149
0.680075
0.645509
0.613027
0.582244
0.552833
0.524531
0.497143
0.470546
0.444686
0.41957
0.395263
0.371872
0.349535
0.328403
0.308628
0.290341
0.273645
0.258597
0.245212
0.233457
0.223256
0.214502
0.207063
0.200796
0.195554
0.191195
0.187584
0.184602
0.182143
0.180115
0.178442
0.177057
0.175909
0.174953
0.174154
0.173483
0.172915
0.172433
0.172021
0.171666
0.171359
0.171092
0.170857
0.17065
0.170467
0.170303
0.170155
0.170021
0.169899
0.169786
0.169682
0.169584
0.169492
0.169406
0.169323
0.169244
0.169169
0.169098
0.169029
0.168963
0.1689
0.168838
0.168779
0.16872
0.168664
0.16861
0.168557
0.168507
0.168458
0.168411
0.168366
0.168322
0.168279
0.168236
0.168193
0.168149
0.168104
0.168058
0.168013
0.167972
0.167942
0.167936
0.674446
1.1509
1.39682
1.54712
1.64636
1.71301
1.75793
1.78882
1.81141
1.82996
1.84738
1.86539
1.88479
1.90559
1.92733
1.9492
1.97027