/*--------------------------------*- C++ -*----------------------------------*\
  =========                 |
  \\      /  F ield         | OpenFOAM: The Open Source CFD Toolbox
   \\    /   O peration     | Website:  https://openfoam.org
    \\  /    A nd           | Version:  9
     \\/     M anipulation  |
\*---------------------------------------------------------------------------*/
FoamFile
{
    format      ascii;
    class       volScalarField;
    location    "0.03";
    object      nut;
}
// * * * * * * * * * * * * * * * * * * * * * * * * * * * * * * * * * * * * * //

dimensions      [0 2 -1 0 0 0 0];

internalField   nonuniform List<scalar> 
12225
(
3.04273e-05
1.8306e-05
1.1833e-05
8.42439e-06
6.56508e-06
5.46712e-06
4.75135e-06
4.24707e-06
3.88031e-06
3.61484e-06
3.42493e-06
3.28627e-06
3.17638e-06
3.07774e-06
2.98533e-06
2.9381e-06
4.00137e-06
1.27923e-05
0.000163545
0.000101976
8.21067e-05
7.28033e-05
6.72927e-05
6.3318e-05
6.00404e-05
5.7281e-05
5.50526e-05
5.33434e-05
5.20641e-05
5.10715e-05
5.02228e-05
4.94306e-05
4.87698e-05
4.81616e-05
4.42727e-05
5.30098e-05
0.000340748
0.000221306
0.000178939
0.000157149
0.000143418
0.000133555
0.000125914
0.000119975
0.00011559
0.000112578
0.000110602
0.000109217
0.00010798
0.000106536
0.00010444
9.89915e-05
7.99981e-05
8.02102e-05
0.000504896
0.000350694
0.000285508
0.00024946
0.000225927
0.000208863
0.000195776
0.000185737
0.000178387
0.000173372
0.000170117
0.000167856
0.00016576
0.000162974
0.000157878
0.000144061
0.000109584
0.000100257
0.000629664
0.000472403
0.00039182
0.000343427
0.000310525
0.000286208
0.000267431
0.000252948
0.000242223
0.000234759
0.000229789
0.000226257
0.000222922
0.000218255
0.000209076
0.000185597
0.000136505
0.000116803
0.000714746
0.000576278
0.000490665
0.000434251
0.000393945
0.000363326
0.000339311
0.000320548
0.000306419
0.000296345
0.000289425
0.000284364
0.000279512
0.000272564
0.000258684
0.00022563
0.00016367
0.000132098
0.000769184
0.000658597
0.000577226
0.000518076
0.000473327
0.000438141
0.000409935
0.000387514
0.000370307
0.000357733
0.000348829
0.000342119
0.000335569
0.000326076
0.000307294
0.00026552
0.000192584
0.000147885
0.000802654
0.000720067
0.000649076
0.000592112
0.00054625
0.000508721
0.000477822
0.000452746
0.000433102
0.000418396
0.00040767
0.000399335
0.000391017
0.00037888
0.000355363
0.000306159
0.000224217
0.000165715
0.000822714
0.000763793
0.000705891
0.000654793
0.00061091
0.000573395
0.000541551
0.000515092
0.000493905
0.000477657
0.000465461
0.000455674
0.000445657
0.000430963
0.000403209
0.000348128
0.000259266
0.000187037
0.000834548
0.000793686
0.000748895
0.00070575
0.000666245
0.000630891
0.000599872
0.000573426
0.000551755
0.000534728
0.000521575
0.000510662
0.000499166
0.000482213
0.000451003
0.000391772
0.000298222
0.000213231
0.000841469
0.000813478
0.000780203
0.000745614
0.000711967
0.000680445
0.000651821
0.000626744
0.000605699
0.000588754
0.000575283
0.000563707
0.000551113
0.000532409
0.00049876
0.000437215
0.000341337
0.000245529
0.000845174
0.000825195
0.000800385
0.000773163
0.000745378
0.000718315
0.000692973
0.000670214
0.000650691
0.000634622
0.000621506
0.000609842
0.000596729
0.000577062
0.000542266
0.000480278
0.000384312
0.000280871
0.00084748
0.000833059
0.000814908
0.000794224
0.000772252
0.000750089
0.000728727
0.00070908
0.000691871
0.000677401
0.000665271
0.00065408
0.000641013
0.000621132
0.000586391
0.000525864
0.000432625
0.000325269
0.000849027
0.000838696
0.000826044
0.000811403
0.000795381
0.000778698
0.000762151
0.000746551
0.000732584
0.000720572
0.000710186
0.000700145
0.000687813
0.000668606
0.000635293
0.000578311
0.000490714
0.000383375
0.000849992
0.000842415
0.000833883
0.000824285
0.000813745
0.000802578
0.000791259
0.000780366
0.000770431
0.000761704
0.000753887
0.000745824
0.000735152
0.000717837
0.000687718
0.000636791
0.000558389
0.000456816
0.000850549
0.000844665
0.000838908
0.000833063
0.000827007
0.000820747
0.000814441
0.000808375
0.000802843
0.000797955
0.000793386
0.00078811
0.000780116
0.000766077
0.000741076
0.000698804
0.000633327
0.000544397
0.000850841
0.00084589
0.000841789
0.000838387
0.000835509
0.000833012
0.000830834
0.000829009
0.000827594
0.000826531
0.000825448
0.000823454
0.000818933
0.00080934
0.000791059
0.000759502
0.000709942
0.000639962
0.000850961
0.000846429
0.000843136
0.000841027
0.000839972
0.0008398
0.000840353
0.000841515
0.000843183
0.000845175
0.0008471
0.000848218
0.000847318
0.000842614
0.00083169
0.000811554
0.000778962
0.000731346
0.000850942
0.000846415
0.00084321
0.000841342
0.000840749
0.000841301
0.000842841
0.000845213
0.000848257
0.00085176
0.000855376
0.00085855
0.000860458
0.000859964
0.000855627
0.000845735
0.000828443
0.000802077
0.000850718
0.00084557
0.000841412
0.000838336
0.000836415
0.000835653
0.000835994
0.000837332
0.000839531
0.000842405
0.00084568
0.000848954
0.000851665
0.000853076
0.000852285
0.000848268
0.000839963
0.000826442
0.00085014
0.000843365
0.000836784
0.000830774
0.000825745
0.000821979
0.000819582
0.000818518
0.000818655
0.000819804
0.000821716
0.00082407
0.00082646
0.00082838
0.000829237
0.000828379
0.000825159
0.000819061
0.000848606
0.000837797
0.000825811
0.000813955
0.00080337
0.000794737
0.000788281
0.000783915
0.000781386
0.000780382
0.000780583
0.000781663
0.000783279
0.000785057
0.000786582
0.000787411
0.000787119
0.000785379
0.000844679
0.000824802
0.000802479
0.000781081
0.000762658
0.000748009
0.000737114
0.000729518
0.000724621
0.00072184
0.000720679
0.000720737
0.000721677
0.000723192
0.000724979
0.000726724
0.000728122
0.000728931
0.000835041
0.000797076
0.000758171
0.000724405
0.000697641
0.000677651
0.000663472
0.000653907
0.00064782
0.000644275
0.000642573
0.000642223
0.000642884
0.000644301
0.000646256
0.000648533
0.000650911
0.000653185
0.000812548
0.000743741
0.000684178
0.00063861
0.000606051
0.000583666
0.000568756
0.000559265
0.000553554
0.000550416
0.000549024
0.000548857
0.000549604
0.000551078
0.000553145
0.000555678
0.000558529
0.000561525
0.000763278
0.000652395
0.00057567
0.000524722
0.00049155
0.000470931
0.000458218
0.000450738
0.000446643
0.000444677
0.000444048
0.0004443
0.000445208
0.000446673
0.000448647
0.000451085
0.00045391
0.000456984
0.000664708
0.000516142
0.000436818
0.000390875
0.000363481
0.000347711
0.000339278
0.000334785
0.000332661
0.000331894
0.000331887
0.000332341
0.000333149
0.000334299
0.000335817
0.000337721
0.00033999
0.000342533
0.000493729
0.000344605
0.000282954
0.000250937
0.000233243
0.000223902
0.000219673
0.000217707
0.000216923
0.000216719
0.000216786
0.000217001
0.000217352
0.000217883
0.000218651
0.000219698
0.000221036
0.000222614
0.000262031
0.000170607
0.000137756
0.000121511
0.000112909
0.000108633
0.000106759
0.000105865
0.000105354
0.000105048
0.000104854
0.000104737
0.000104704
0.00010478
0.000104992
0.000105363
0.000105899
0.000106584
5.95687e-05
4.24972e-05
3.13724e-05
2.4161e-05
1.95319e-05
1.65929e-05
1.47399e-05
1.36021e-05
1.28821e-05
1.23987e-05
1.2058e-05
1.18127e-05
1.16406e-05
1.15313e-05
1.14793e-05
1.14806e-05
1.15308e-05
1.16235e-05
8.62728e-05
6.78994e-05
7.01401e-05
7.10704e-05
7.1049e-05
7.03181e-05
6.90066e-05
6.7232e-05
6.53996e-05
6.36657e-05
6.20433e-05
6.07099e-05
5.9988e-05
6.02039e-05
6.14046e-05
6.31644e-05
6.47748e-05
6.58394e-05
6.63404e-05
6.66766e-05
6.80237e-05
7.00035e-05
7.23427e-05
7.48998e-05
7.7587e-05
8.034e-05
8.311e-05
8.58598e-05
8.85623e-05
9.11979e-05
9.37534e-05
9.62206e-05
9.85946e-05
0.000100874
0.000103057
0.000105147
0.000107144
0.000109052
0.000110873
0.00011261
0.000114268
0.000115848
0.000117356
0.000118794
0.000120169
0.000121485
0.000122749
0.000123972
0.000125167
0.000126358
0.000127504
0.000128562
0.000129531
0.000130408
0.000131186
0.000131856
0.00013241
0.000132837
0.000133126
0.000133266
0.000133244
0.000133048
0.000132667
0.000132088
0.000131301
0.000130296
0.000129063
0.000127595
0.000125884
0.000123927
0.000121721
0.000119265
0.000116562
0.000113617
0.000110437
0.000107034
0.000103422
9.96222e-05
9.56723e-05
9.14146e-05
8.78508e-05
8.42709e-05
8.06303e-05
7.69653e-05
7.33087e-05
6.96946e-05
6.61551e-05
6.27194e-05
5.94067e-05
5.62078e-05
5.31087e-05
5.01964e-05
4.76506e-05
0.000208035
0.000205867
4.55159e-05
0.000197654
0.000198155
0.000197372
0.000193292
0.000185625
0.000176577
0.000167608
0.000159411
0.000152233
0.000146093
0.00014091
0.000136563
0.000132934
0.000129909
0.00012738
0.000125245
0.000123411
0.000121808
0.00012039
0.000119126
0.000117999
0.000116993
0.000116098
0.000115307
0.000114611
0.000113993
0.000113428
0.000112884
0.000112337
0.000111776
0.000111205
0.000110632
0.000110064
0.000109507
0.000108966
0.00010845
0.000107963
0.000107503
0.000107055
0.000106594
0.000106101
0.000105571
0.000105017
0.000104449
0.000103878
0.000103313
0.000102764
0.000102241
0.000101742
0.000101257
0.000100765
0.000100245
9.96855e-05
9.90998e-05
9.85023e-05
9.7902e-05
9.73061e-05
9.67251e-05
9.61704e-05
9.56481e-05
9.51511e-05
9.46589e-05
9.41416e-05
9.35782e-05
9.29848e-05
9.23793e-05
9.17694e-05
9.11602e-05
9.05609e-05
8.99845e-05
8.94412e-05
8.89297e-05
8.84344e-05
8.79289e-05
8.73858e-05
8.68017e-05
8.62019e-05
8.56013e-05
8.50139e-05
8.44778e-05
8.40672e-05
8.38155e-05
8.3702e-05
8.34421e-05
0.000131679
0.000201608
0.000250929
0.000284256
0.000304039
0.000312701
0.000312592
0.000305793
0.000289728
0.000271855
0.000260615
0.000261039
0.000273419
0.000293308
0.000313695
0.000328166
0.000334517
0.000334796
0.000331958
0.000328493
0.000325933
0.000324844
0.000325221
0.000326931
0.000329891
0.000334074
0.000339486
0.000346142
0.000354061
0.000363255
0.000373735
0.000385503
0.000398561
0.00041291
0.000428548
0.000445474
0.000463685
0.000483173
0.000503924
0.000525908
0.00054908
0.000573363
0.000598647
0.00062477
0.00065151
0.000678567
0.000705539
0.000731922
0.000757109
0.000779419
0.000801124
0.000822887
0.000844679
0.000866381
0.000887854
0.000908943
0.000929478
0.000949279
0.000968154
0.000985903
0.00100232
0.00101721
0.00103035
0.00104156
0.00105064
0.00105741
0.00106172
0.00106342
0.00106239
0.00105853
0.00105179
0.00104211
0.0010295
0.00101398
0.000995601
0.000974443
0.000950598
0.00092414
0.00089507
0.000863319
0.000829359
0.000793288
0.000755969
0.000718134
0.000680344
0.000643052
0.000606615
0.000571259
0.000536958
0.000503164
0.000467513
0.000430644
0.000397016
0.000395356
0.000381049
0.000342336
0.000356578
0.000366162
0.000386308
0.000390739
0.000380685
0.000363909
0.000345526
0.000327922
0.000312042
0.00029817
0.000286294
0.000276269
0.000267888
0.00026092
0.000255138
0.00025033
0.000246318
0.000242954
0.000240124
0.000237732
0.000235702
0.000233973
0.000232501
0.00023125
0.000230185
0.000229262
0.000228438
0.000227674
0.000226953
0.000226269
0.000225619
0.000225
0.000224405
0.000223833
0.000223283
0.000222756
0.00022225
0.000221746
0.000221229
0.000220705
0.00022016
0.000219594
0.000219013
0.00021842
0.000217821
0.00021722
0.000216626
0.000216048
0.000215482
0.000214917
0.000214338
0.00021374
0.000213124
0.000212496
0.00021186
0.000211219
0.000210577
0.000209942
0.000209322
0.000208721
0.000208129
0.000207527
0.000206905
0.000206263
0.000205608
0.000204942
0.000204266
0.00020358
0.000202888
0.000202201
0.000201523
0.000200844
0.000200146
0.000199416
0.000198597
0.000197696
0.000196707
0.0001956
0.000194344
0.000192992
0.000191801
0.000191132
0.000191154
0.000190754
0.000157656
0.000251182
0.000335573
0.000399744
0.000442362
0.000465714
0.000473282
0.000468824
0.000453188
0.000435621
0.000426238
0.000430376
0.000445026
0.000463706
0.000480321
0.00049148
0.000496961
0.000498724
0.000499443
0.000501361
0.000505864
0.000513572
0.000524648
0.000539062
0.000556706
0.000577424
0.000601024
0.000627276
0.000655928
0.000686712
0.000719364
0.000753628
0.00078927
0.000826085
0.000863891
0.000902533
0.000941878
0.000981802
0.00102219
0.00106292
0.00110385
0.00114485
0.00118573
0.00122631
0.00126637
0.00130565
0.00134393
0.00138096
0.00141651
0.00145056
0.00148426
0.00151782
0.00155114
0.00158403
0.0016163
0.00164769
0.00167795
0.00170681
0.00173399
0.0017592
0.00178215
0.00180254
0.00182009
0.00183452
0.00184559
0.00185304
0.00185668
0.00185632
0.00185182
0.00184305
0.00182995
0.00181247
0.00179064
0.00176449
0.00173412
0.00169962
0.00166113
0.00161877
0.00157264
0.00152297
0.0014704
0.00141516
0.00135792
0.00129933
0.00124004
0.00118062
0.00112159
0.00106336
0.00100613
0.000949868
0.000894039
0.000838696
0.000787252
0.000745224
0.000707821
0.00067252
0.000647107
0.000625887
0.000611019
0.000593192
0.000569647
0.000542474
0.000514415
0.000487383
0.000462451
0.00044012
0.000420544
0.000403666
0.000389301
0.000377187
0.00036703
0.000358537
0.000351441
0.000345513
0.000340556
0.000336405
0.000332919
0.000329984
0.000327509
0.000325422
0.000323656
0.000322146
0.000320828
0.000319651
0.000318586
0.00031762
0.000316744
0.000315944
0.000315207
0.000314522
0.000313883
0.000313283
0.000312715
0.00031216
0.000311595
0.000311028
0.000310449
0.000309859
0.000309262
0.00030866
0.000308055
0.00030745
0.000306853
0.00030627
0.000305699
0.000305127
0.00030454
0.000303931
0.000303309
0.000302681
0.00030205
0.000301416
0.000300781
0.000300151
0.000299535
0.000298935
0.000298339
0.000297727
0.00029709
0.000296434
0.000295767
0.000295092
0.000294405
0.000293701
0.000292982
0.000292255
0.000291525
0.000290776
0.000289981
0.000289119
0.000288124
0.000286996
0.000285708
0.000284203
0.000282429
0.00028044
0.000278552
0.000277305
0.000277061
0.000277192
0.000176245
0.000283361
0.000407089
0.000499251
0.000556761
0.000585389
0.000592429
0.000583773
0.0005688
0.00055677
0.000553854
0.000561255
0.00057571
0.000592467
0.000607887
0.000620608
0.000631367
0.000642073
0.000654812
0.000671174
0.000692042
0.000717685
0.000747956
0.000782462
0.000820673
0.000861988
0.000905784
0.000951451
0.000998422
0.00104619
0.00109433
0.0011425
0.0011904
0.00123786
0.00128471
0.00133086
0.00137627
0.00142088
0.00146469
0.00150769
0.00154987
0.00159124
0.00163177
0.00167146
0.00171028
0.00174819
0.00178516
0.00182112
0.00185599
0.0018901
0.00192396
0.00195761
0.00199093
0.00202373
0.00205578
0.00208684
0.00211664
0.00214491
0.00217133
0.00219561
0.00221746
0.00223656
0.00225264
0.0022654
0.00227461
0.00228002
0.00228143
0.00227866
0.00227158
0.00226008
0.0022441
0.00222362
0.00219866
0.00216926
0.00213551
0.00209752
0.00205542
0.0020093
0.00195929
0.00190566
0.00184882
0.00178906
0.00172697
0.00166308
0.00159793
0.00153202
0.00146579
0.00139967
0.00133398
0.00126895
0.00120472
0.00114144
0.00108091
0.00102467
0.000972941
0.000925486
0.00088271
0.000843743
0.000808411
0.000773883
0.000738453
0.000702279
0.000666388
0.000631863
0.000599539
0.000569958
0.000543412
0.000519989
0.00049962
0.000482117
0.000467213
0.000454607
0.000443994
0.000435088
0.00042763
0.00042139
0.000416167
0.000411791
0.000408121
0.000405037
0.000402437
0.000400229
0.000398327
0.000396663
0.000395191
0.000393886
0.000392728
0.000391698
0.000390775
0.000389939
0.000389177
0.000388475
0.000387818
0.000387188
0.000386561
0.000385931
0.0003853
0.000384666
0.000384034
0.000383405
0.00038278
0.000382161
0.000381552
0.000380956
0.000380372
0.000379786
0.000379184
0.000378562
0.000377926
0.000377286
0.000376649
0.000376015
0.000375382
0.000374755
0.00037414
0.000373537
0.000372935
0.000372315
0.000371666
0.000370994
0.000370313
0.000369625
0.000368927
0.000368212
0.000367478
0.00036673
0.000365965
0.00036517
0.000364312
0.000363357
0.000362244
0.000360963
0.000359481
0.000357736
0.000355671
0.000353341
0.000351056
0.000349387
0.000348789
0.000349039
0.000191128
0.000291653
0.000464421
0.000584921
0.000656778
0.00069154
0.00069934
0.000691276
0.000678679
0.000670084
0.000669814
0.000678016
0.000692275
0.000709772
0.00072876
0.000748989
0.000771322
0.000797034
0.000827217
0.000862452
0.000902764
0.000947726
0.000996624
0.00104859
0.00110274
0.00115819
0.00121415
0.00126996
0.00132503
0.00137894
0.00143134
0.00148202
0.00153083
0.00157772
0.00162268
0.00166578
0.00170711
0.00174678
0.00178493
0.00182171
0.00185725
0.0018917
0.0019252
0.00195786
0.00198976
0.00202098
0.00205153
0.00208141
0.00211055
0.00213933
0.00216805
0.0021967
0.00222515
0.00225323
0.00228073
0.00230741
0.002333
0.00235724
0.00237984
0.00240052
0.00241898
0.00243496
0.00244817
0.00245837
0.00246531
0.00246879
0.00246863
0.00246468
0.00245682
0.00244496
0.00242907
0.00240912
0.00238513
0.00235716
0.00232528
0.00228958
0.00225015
0.00220708
0.00216045
0.00211047
0.00205711
0.00200076
0.00194193
0.00188105
0.0018185
0.00175464
0.00168982
0.00162435
0.00155852
0.0014926
0.00142686
0.00136152
0.00129758
0.0012359
0.00117712
0.00112157
0.00106934
0.00102024
0.000973948
0.000929499
0.000886077
0.000843481
0.000802014
0.000762199
0.000724571
0.000689581
0.000657555
0.000628688
0.000603043
0.000580557
0.000561064
0.000544328
0.000530072
0.000518006
0.000507845
0.00049932
0.000492183
0.000486214
0.000481222
0.000477044
0.000473535
0.000470571
0.000468042
0.00046586
0.000463959
0.000462297
0.00046084
0.000459563
0.000458436
0.000457435
0.000456534
0.000455716
0.000454958
0.000454239
0.000453535
0.000452831
0.000452133
0.00045144
0.000450755
0.000450082
0.00044942
0.00044877
0.000448134
0.000447511
0.000446897
0.000446281
0.000445651
0.000445001
0.000444338
0.000443673
0.000443014
0.000442362
0.000441716
0.000441078
0.00044045
0.00043983
0.000439208
0.000438566
0.000437895
0.000437199
0.000436492
0.000435781
0.000435064
0.000434333
0.000433584
0.000432815
0.000432023
0.000431191
0.000430287
0.000429266
0.000428075
0.000426702
0.000425116
0.000423259
0.000421085
0.000418645
0.00041622
0.000414332
0.000413427
0.000413507
0.000212885
0.000336447
0.000534679
0.000672716
0.000756055
0.000796498
0.000807395
0.00080204
0.000791909
0.000785314
0.000786461
0.000796012
0.000812741
0.000835163
0.000862421
0.000894387
0.000931326
0.000973476
0.00102078
0.00107279
0.00112876
0.00118769
0.00124855
0.0013103
0.001372
0.00143282
0.00149208
0.00154925
0.00160393
0.00165584
0.00170482
0.00175081
0.00179383
0.00183397
0.00187138
0.00190625
0.00193882
0.00196933
0.00199805
0.00202525
0.00205118
0.00207608
0.00210018
0.00212366
0.00214668
0.00216932
0.00219165
0.00221368
0.00223535
0.00225699
0.00227883
0.00230087
0.00232297
0.00234498
0.00236669
0.00238788
0.0024083
0.0024277
0.00244581
0.00246237
0.00247712
0.00248979
0.00250015
0.00250797
0.00251304
0.00251518
0.00251425
0.00251011
0.00250269
0.00249192
0.00247777
0.00246024
0.00243935
0.00241515
0.0023877
0.00235707
0.00232333
0.00228653
0.00224676
0.00220396
0.00215783
0.00210889
0.00205751
0.00200398
0.00194853
0.0018914
0.00183276
0.00177279
0.00171165
0.00164954
0.00158666
0.00152322
0.00145979
0.00139712
0.00133589
0.0012766
0.0012196
0.00116501
0.00111277
0.0010626
0.00101417
0.000967302
0.000922082
0.000878738
0.000837574
0.000798898
0.000762989
0.000730063
0.000700257
0.000673615
0.00065009
0.000629548
0.000611791
0.000596579
0.000583648
0.000572724
0.000563542
0.000555849
0.000549416
0.000544037
0.000539534
0.000535747
0.00053254
0.0005298
0.000527441
0.000525399
0.000523627
0.000522085
0.000520739
0.000519555
0.000518501
0.00051755
0.000516678
0.000515859
0.000515067
0.000514285
0.000513514
0.000512754
0.000512009
0.000511281
0.000510571
0.000509878
0.000509201
0.000508539
0.000507885
0.000507231
0.000506565
0.000505882
0.000505187
0.000504491
0.000503802
0.000503123
0.000502454
0.000501794
0.000501142
0.000500496
0.000499846
0.000499177
0.00049848
0.000497759
0.000497026
0.000496289
0.000495548
0.000494798
0.000494032
0.000493246
0.000492432
0.000491575
0.000490646
0.000489585
0.000488359
0.000486953
0.000485341
0.000483478
0.000481327
0.000478941
0.000476555
0.000474606
0.00047348
0.000473303
4.03867e-05
0.000317803
0.000581547
0.000749359
0.000846674
0.000896017
0.000914081
0.000914599
0.000909091
0.000906097
0.000910496
0.000923974
0.000946327
0.000976728
0.00101438
0.00105865
0.0011089
0.00116437
0.00122408
0.00128695
0.0013518
0.00141747
0.00148288
0.00154708
0.00160928
0.00166882
0.00172521
0.00177808
0.00182722
0.0018725
0.0019139
0.00195151
0.00198548
0.00201602
0.00204341
0.00206796
0.00209002
0.00210993
0.00212806
0.00214476
0.00216037
0.00217518
0.00218947
0.00220347
0.00221735
0.00223124
0.00224521
0.00225929
0.00227343
0.00228788
0.00230285
0.00231831
0.00233416
0.00235023
0.00236633
0.00238224
0.00239774
0.00241259
0.00242652
0.00243931
0.0024507
0.00246046
0.00246837
0.00247422
0.00247785
0.0024791
0.00247784
0.002474
0.0024675
0.00245831
0.00244645
0.00243191
0.00241473
0.00239497
0.00237269
0.00234794
0.00232078
0.00229127
0.00225948
0.00222485
0.0021874
0.0021475
0.00210539
0.00206123
0.00201514
0.00196718
0.00191739
0.00186578
0.00181234
0.0017571
0.00170014
0.00164155
0.00158162
0.00152104
0.00146052
0.00140067
0.00134203
0.00128497
0.00122974
0.00117639
0.0011249
0.00107526
0.00102752
0.000981811
0.000938304
0.000897196
0.000858685
0.000822949
0.00079013
0.000760321
0.00073355
0.000709779
0.000688903
0.00067076
0.000655142
0.000641813
0.000630518
0.000621
0.000613011
0.00060632
0.000600719
0.000596018
0.000592056
0.000588696
0.000585828
0.000583366
0.000581246
0.000579414
0.000577823
0.000576432
0.000575203
0.000574103
0.000573101
0.000572169
0.000571282
0.00057042
0.000569574
0.000568747
0.000567941
0.000567158
0.000566397
0.000565658
0.000564938
0.000564234
0.00056354
0.000562847
0.000562147
0.000561435
0.000560714
0.000559992
0.000559276
0.000558572
0.000557879
0.000557196
0.000556521
0.000555849
0.000555174
0.000554482
0.000553766
0.000553029
0.000552279
0.000551525
0.000550768
0.000550005
0.000549229
0.000548434
0.000547611
0.000546744
0.000545809
0.000544746
0.00054353
0.000542149
0.00054058
0.000538791
0.000536759
0.000534529
0.000532289
0.000530382
0.000529118
0.000528694
0.000279517
0.000454795
0.000669891
0.000826513
0.000928619
0.000987485
0.00101576
0.00102571
0.00102829
0.00103213
0.00104279
0.00106282
0.00109272
0.00113184
0.00117908
0.00123317
0.00129273
0.00135633
0.00142256
0.00149005
0.00155756
0.00162398
0.00168836
0.00174991
0.00180802
0.0018622
0.00191213
0.00195757
0.00199846
0.00203478
0.00206666
0.00209427
0.00211789
0.00213784
0.00215448
0.00216823
0.00217951
0.00218877
0.00219642
0.00220289
0.00220855
0.00221376
0.0022188
0.00222394
0.00222937
0.00223522
0.00224159
0.00224851
0.00225596
0.00226409
0.00227307
0.00228285
0.00229334
0.00230436
0.00231572
0.00232721
0.00233859
0.00234965
0.00236014
0.00236982
0.00237847
0.00238587
0.0023918
0.00239609
0.00239857
0.00239911
0.00239763
0.00239405
0.00238835
0.00238053
0.00237062
0.00235868
0.00234478
0.00232898
0.00231136
0.00229199
0.00227096
0.00224831
0.00222398
0.00219721
0.00216832
0.00213753
0.00210495
0.00207065
0.00203464
0.00199688
0.00195723
0.00191556
0.00187167
0.00182537
0.00177655
0.00172509
0.00167105
0.00161504
0.00155772
0.00149977
0.00144186
0.00138457
0.00132836
0.00127357
0.00122041
0.00116905
0.00111962
0.00107226
0.0010271
0.000984302
0.000943998
0.000906321
0.000871386
0.00083928
0.000810056
0.000783726
0.000760252
0.000739545
0.000721467
0.00070584
0.000692449
0.00068106
0.000671432
0.000663327
0.000656519
0.000650801
0.00064599
0.000641925
0.000638476
0.000635535
0.000633017
0.000630853
0.000628983
0.000627356
0.000625927
0.000624656
0.000623508
0.000622453
0.000621463
0.000620516
0.000619598
0.000618708
0.000617846
0.000617013
0.000616208
0.000615429
0.000614671
0.000613932
0.000613206
0.000612484
0.000611761
0.000611031
0.000610296
0.000609561
0.000608832
0.000608114
0.000607407
0.00060671
0.000606021
0.000605335
0.000604646
0.000603945
0.000603225
0.000602487
0.000601738
0.000600984
0.000600227
0.000599466
0.000598694
0.000597905
0.000597091
0.000596237
0.000595319
0.000594288
0.000593125
0.000591815
0.000590343
0.000588687
0.000586831
0.000584814
0.000582775
0.000580971
0.00057964
0.000578991
4.62914e-05
0.000388065
0.000678706
0.000869969
0.000992213
0.00106678
0.00110915
0.00113199
0.00114605
0.00115989
0.00117937
0.00120756
0.00124531
0.00129202
0.00134633
0.00140656
0.00147094
0.00153779
0.00160556
0.0016729
0.00173865
0.00180184
0.00186168
0.00191753
0.00196894
0.00201555
0.00205715
0.00209366
0.00212508
0.00215152
0.00217319
0.00219038
0.00220344
0.00221279
0.00221887
0.00222218
0.00222321
0.00222247
0.00222043
0.00221755
0.00221425
0.0022109
0.00220782
0.00220528
0.00220348
0.00220257
0.00220264
0.00220373
0.00220583
0.00220901
0.00221335
0.00221879
0.0022252
0.00223239
0.00224017
0.00224831
0.00225659
0.00226479
0.00227266
0.00227999
0.00228654
0.00229211
0.00229649
0.00229951
0.002301
0.00230086
0.00229899
0.00229536
0.00228996
0.00228283
0.00227406
0.00226374
0.00225198
0.00223893
0.00222469
0.00220939
0.00219312
0.00217603
0.00215759
0.00213756
0.00211616
0.00209348
0.0020696
0.00204451
0.0020182
0.00199052
0.00196126
0.00193012
0.00189671
0.00186062
0.00182147
0.00177889
0.00173269
0.0016833
0.00163131
0.00157736
0.0015222
0.00146653
0.00141102
0.00135621
0.00130253
0.00125033
0.00119986
0.00115134
0.00110495
0.00106085
0.00101916
0.000980015
0.000943497
0.000909679
0.000878606
0.000850298
0.000824743
0.000801896
0.000781675
0.000763954
0.000748575
0.000735342
0.000724043
0.000714453
0.000706348
0.000699515
0.000693755
0.000688895
0.000684781
0.000681288
0.000678311
0.000675764
0.000673572
0.000671675
0.000670017
0.000668554
0.000667245
0.000666054
0.000664954
0.000663921
0.000662931
0.000661982
0.000661072
0.000660199
0.00065936
0.000658551
0.000657768
0.000657006
0.000656261
0.000655525
0.000654793
0.000654061
0.000653327
0.000652596
0.000651871
0.000651156
0.000650452
0.000649757
0.00064907
0.000648386
0.000647702
0.000647009
0.000646303
0.000645583
0.000644853
0.000644118
0.000643381
0.00064264
0.000641891
0.000641128
0.000640343
0.000639524
0.000638648
0.000637678
0.000636598
0.000635395
0.000634057
0.000632567
0.000630917
0.000629135
0.00062732
0.000625656
0.000624323
0.000623514
4.70555e-05
0.000388072
0.000694619
0.000904131
0.00104354
0.00113447
0.00119266
0.00123056
0.0012584
0.00128433
0.00131408
0.00135086
0.0013957
0.0014481
0.00150667
0.00156964
0.00163521
0.00170168
0.00176759
0.00183171
0.001893
0.00195065
0.00200401
0.00205257
0.00209598
0.002134
0.00216653
0.00219356
0.0022152
0.00223164
0.00224318
0.00225018
0.00225309
0.00225239
0.00224861
0.00224231
0.00223405
0.00222437
0.00221381
0.00220285
0.00219194
0.00218147
0.00217176
0.00216308
0.00215564
0.00214958
0.00214498
0.00214187
0.00214022
0.00214002
0.00214125
0.00214378
0.00214745
0.00215205
0.00215736
0.00216317
0.00216926
0.00217539
0.00218136
0.00218694
0.00219192
0.0021961
0.00219927
0.00220124
0.00220186
0.00220099
0.00219853
0.00219446
0.00218878
0.00218155
0.0021729
0.00216299
0.002152
0.00214014
0.00212761
0.0021146
0.00210129
0.00208777
0.00207346
0.00205845
0.0020428
0.00202655
0.00200976
0.00199245
0.00197459
0.00195603
0.00193651
0.00191562
0.0018928
0.00186744
0.00183885
0.00180632
0.00176944
0.00172839
0.00168354
0.00163546
0.00158486
0.00153252
0.00147924
0.00142573
0.00137264
0.00132046
0.00126961
0.00122041
0.00117313
0.00112798
0.00108512
0.00104471
0.00100685
0.000971605
0.000939022
0.000909113
0.000881868
0.000857253
0.000835207
0.000815645
0.000798448
0.000783468
0.000770528
0.000759434
0.000749979
0.000741955
0.000735164
0.000729421
0.000724562
0.000720442
0.000716941
0.000713955
0.000711397
0.000709192
0.000707277
0.000705599
0.000704111
0.000702774
0.000701557
0.00070043
0.000699367
0.000698363
0.000697412
0.000696507
0.000695644
0.000694816
0.00069402
0.00069325
0.000692501
0.000691766
0.000691041
0.000690321
0.000689604
0.000688893
0.000688188
0.000687493
0.000686808
0.000686133
0.000685464
0.000684801
0.000684139
0.000683472
0.000682796
0.000682111
0.000681418
0.000680722
0.000680022
0.00067932
0.000678611
0.000677891
0.000677154
0.000676391
0.000675576
0.000674687
0.000673711
0.000672634
0.000671449
0.000670141
0.000668705
0.00066716
0.000665575
0.000664076
0.000662795
0.000661906
4.76873e-05
0.000387131
0.000704433
0.000928496
0.00108361
0.00119079
0.00126538
0.00131924
0.00136185
0.00140069
0.00144104
0.00148604
0.00153681
0.00159307
0.00165361
0.00171685
0.00178114
0.00184496
0.001907
0.00196618
0.0020216
0.00207257
0.00211857
0.00215918
0.00219415
0.00222334
0.00224671
0.00226435
0.00227643
0.00228324
0.00228515
0.0022826
0.00227612
0.00226626
0.00225363
0.00223884
0.00222251
0.00220523
0.00218758
0.00217007
0.00215315
0.00213723
0.00212262
0.00210958
0.00209829
0.00208886
0.00208133
0.0020757
0.00207191
0.00206984
0.00206933
0.0020702
0.00207223
0.0020752
0.00207889
0.00208307
0.00208754
0.00209211
0.00209658
0.00210076
0.00210447
0.0021075
0.00210967
0.00211078
0.00211063
0.00210906
0.00210595
0.00210121
0.00209483
0.00208689
0.00207752
0.00206693
0.00205539
0.0020432
0.00203066
0.0020181
0.0020058
0.00199372
0.00198169
0.00196971
0.00195776
0.00194589
0.00193417
0.00192267
0.00191143
0.00190036
0.00188922
0.00187755
0.0018647
0.00184984
0.00183202
0.00181013
0.00178355
0.00175213
0.00171595
0.00167536
0.00163096
0.00158353
0.00153394
0.00148304
0.00143164
0.00138042
0.00132993
0.00128062
0.00123286
0.00118695
0.00114312
0.00110158
0.00106246
0.00102588
0.00099191
0.000960565
0.000931838
0.000905692
0.000882069
0.000860892
0.000842067
0.000825477
0.000810979
0.000798414
0.000787599
0.000778348
0.000770468
0.000763776
0.000758101
0.000753288
0.000749201
0.000745723
0.000742752
0.000740202
0.000738
0.000736084
0.0007344
0.000732904
0.000731559
0.000730331
0.000729192
0.000728133
0.000727143
0.000726211
0.00072533
0.000724493
0.000723694
0.000722926
0.000722185
0.000721463
0.000720757
0.000720061
0.000719373
0.000718693
0.000718022
0.000717361
0.000716709
0.000716067
0.000715433
0.000714805
0.000714179
0.000713552
0.00071292
0.000712283
0.000711641
0.000710995
0.000710348
0.000709698
0.000709043
0.000708381
0.000707705
0.000707009
0.000706271
0.000705476
0.000704613
0.000703671
0.000702643
0.000701518
0.000700292
0.000698975
0.000697614
0.000696294
0.000695111
0.000694215
4.80572e-05
0.000382848
0.000707493
0.00094391
0.00111351
0.0012363
0.00132697
0.00139662
0.00145387
0.0015054
0.00155593
0.00160837