/*--------------------------------*- C++ -*----------------------------------*\
  =========                 |
  \\      /  F ield         | OpenFOAM: The Open Source CFD Toolbox
   \\    /   O peration     | Website:  https://openfoam.org
    \\  /    A nd           | Version:  9
     \\/     M anipulation  |
\*---------------------------------------------------------------------------*/
FoamFile
{
    format      ascii;
    class       volScalarField;
    location    "0.03";
    object      p;
}
// * * * * * * * * * * * * * * * * * * * * * * * * * * * * * * * * * * * * * //

dimensions      [0 2 -2 0 0 0 0];

internalField   nonuniform List<scalar> 
12225
(
1.02981
0.694433
0.60034
0.592323
0.590329
0.592454
0.600125
0.610991
0.623712
0.638172
0.65447
0.67261
0.692467
0.713543
0.735075
0.754186
0.767107
0.736057
0.576825
0.605899
0.598666
0.595326
0.593808
0.596086
0.603739
0.614612
0.62735
0.641809
0.658117
0.676321
0.696344
0.717665
0.739551
0.759446
0.773896
0.792151
0.573679
0.62315
0.60555
0.598545
0.597776
0.600677
0.608478
0.619451
0.632287
0.646798
0.663123
0.681381
0.701595
0.723302
0.745909
0.767281
0.788202
0.825216
0.607459
0.628552
0.606524
0.599756
0.600159
0.603915
0.612142
0.623426
0.63651
0.651146
0.667478
0.685711
0.706004
0.728068
0.751666
0.775959
0.805109
0.845692
0.610749
0.620561
0.603806
0.599276
0.600815
0.605485
0.614241
0.625882
0.639222
0.653957
0.670223
0.688299
0.70848
0.730703
0.755185
0.78248
0.818459
0.860788
0.603568
0.611222
0.600356
0.597701
0.600152
0.605647
0.614859
0.62676
0.640251
0.654979
0.671059
0.688816
0.708652
0.730722
0.755649
0.785015
0.825258
0.868207
0.597312
0.603656
0.596635
0.595258
0.598409
0.604539
0.614037
0.626022
0.639485
0.654036
0.669754
0.686981
0.706182
0.727682
0.75238
0.782426
0.82379
0.865183
0.592262
0.596955
0.592432
0.592024
0.595671
0.602192
0.611755
0.623597
0.6368
0.650945
0.666067
0.682491
0.7007
0.721115
0.744758
0.773917
0.813435
0.85128
0.587192
0.59042
0.58769
0.588039
0.591964
0.598613
0.607991
0.61943
0.632099
0.645559
0.659793
0.675085
0.691884
0.710638
0.732337
0.759098
0.79447
0.827274
0.581713
0.583876
0.582431
0.583318
0.587301
0.593808
0.602736
0.613491
0.625321
0.637778
0.650792
0.66458
0.679517
0.696012
0.714913
0.737984
0.767655
0.794389
0.575791
0.577232
0.576641
0.577848
0.581681
0.587787
0.595999
0.605781
0.616455
0.627572
0.639007
0.650896
0.663516
0.677182
0.692536
0.710909
0.733931
0.75396
0.569948
0.570937
0.570817
0.572135
0.575658
0.58118
0.588505
0.597142
0.606474
0.616057
0.625717
0.63551
0.645613
0.656232
0.667795
0.681223
0.697655
0.71102
0.563778
0.564434
0.564588
0.565855
0.568917
0.573676
0.579919
0.587199
0.594954
0.602753
0.61038
0.617814
0.625127
0.632413
0.639908
0.648185
0.657862
0.664678
0.556163
0.556563
0.556819
0.557855
0.560226
0.56391
0.56869
0.574161
0.579827
0.585274
0.590253
0.594664
0.598478
0.601667
0.604286
0.606593
0.608829
0.608431
0.546778
0.546992
0.54714
0.547716
0.549124
0.551372
0.554254
0.55741
0.560406
0.562859
0.564503
0.565173
0.564751
0.563111
0.560158
0.555909
0.550401
0.542248
0.535277
0.535335
0.535158
0.534994
0.535118
0.535539
0.536061
0.53637
0.536098
0.534905
0.532529
0.528773
0.523462
0.51641
0.507434
0.496405
0.483255
0.467253
0.521382
0.521269
0.520549
0.51933
0.517822
0.516019
0.513744
0.510725
0.506663
0.501279
0.49434
0.485655
0.475045
0.462319
0.447278
0.429755
0.409661
0.386609
0.505092
0.504759
0.503282
0.500687
0.497192
0.492811
0.487387
0.480702
0.472529
0.462658
0.450914
0.437145
0.421208
0.402951
0.382215
0.358862
0.332828
0.303875
0.487153
0.486529
0.484067
0.479765
0.473939
0.466669
0.457852
0.447343
0.435006
0.420715
0.40437
0.385891
0.365207
0.342252
0.31697
0.289333
0.259395
0.227137
0.473724
0.472891
0.469511
0.463656
0.455835
0.446218
0.434767
0.421419
0.406112
0.388779
0.369354
0.347781
0.32401
0.297996
0.269705
0.239124
0.206301
0.171231
0.466018
0.465073
0.460916
0.45377
0.444395
0.433045
0.419745
0.404515
0.387355
0.368225
0.347061
0.3238
0.298382
0.270754
0.240879
0.208739
0.17436
0.137733
0.461906
0.460966
0.456008
0.447581
0.436814
0.424005
0.409227
0.392595
0.374158
0.353878
0.331673
0.307456
0.281143
0.252666
0.221987
0.189091
0.154009
0.116774
0.460443
0.459809
0.453982
0.444251
0.432264
0.418251
0.402334
0.384731
0.365512
0.344608
0.321902
0.297271
0.270598
0.241796
0.210819
0.177658
0.142347
0.104947
0.460775
0.460972
0.454104
0.443078
0.430085
0.415099
0.398338
0.380142
0.360549
0.339425
0.316611
0.291938
0.265256
0.236461
0.205501
0.172376
0.137129
0.0998504
0.462718
0.464453
0.455846
0.443471
0.429714
0.413927
0.396571
0.378112
0.358484
0.337458
0.314821
0.290365
0.263907
0.235329
0.204585
0.171687
0.136695
0.0997258
0.4666
0.471643
0.459264
0.444981
0.430551
0.414062
0.396342
0.377927
0.358563
0.337897
0.315665
0.291616
0.265543
0.237325
0.206929
0.17439
0.139784
0.103259
0.46676
0.482
0.464216
0.447112
0.431781
0.414678
0.396894
0.378874
0.360083
0.340027
0.3184
0.294912
0.269344
0.241587
0.211634
0.179548
0.145427
0.109441
0.434743
0.481795
0.466415
0.448485
0.43223
0.414699
0.397374
0.380257
0.362415
0.343243
0.32241
0.299612
0.274636
0.247409
0.21796
0.186392
0.152825
0.117433
0.407129
0.453749
0.458441
0.44736
0.431314
0.413656
0.397201
0.381549
0.364963
0.34685
0.326903
0.304836
0.280473
0.253791
0.224868
0.193846
0.160876
0.126141
0.853162
0.566657
0.468877
0.448704
0.431528
0.413616
0.398131
0.383435
0.367656
0.350202
0.330793
0.309164
0.285168
0.258813
0.230214
0.199533
0.166952
0.132705
-1.4017
-1.39323
-1.4489
-1.55839
-1.68996
-1.81493
-1.91184
-1.96524
-1.9798
-1.96524
-1.93678
-1.90771
-1.88854
-1.88529
-1.89909
-1.92827
-1.97091
-2.02632
-2.09498
-2.17835
-2.27925
-2.40163
-2.54923
-2.72518
-2.93191
-3.17093
-3.44257
-3.74588
-4.07872
-4.4378
-4.81891
-5.21709
-5.62687
-6.04245
-6.4579
-6.86727
-7.26465
-7.64428
-8.0006
-8.32824
-8.62209
-8.87732
-9.0894
-9.25409
-9.36781
-9.42824
-9.43418
-9.38423
-9.27437
-9.09604
-8.8417
-8.5168
-8.12494
-7.66991
-7.15587
-6.58775
-5.97136
-5.31343
-4.62161
-3.9043
-3.17061
-2.43008
-1.6926
-0.968054
-0.266186
0.403713
1.03303
1.61408
2.1403
2.60644
3.0087
3.34484
3.61416
3.81755
3.95737
4.0373
4.0622
4.03784
3.97076
3.86849
3.73817
3.5855
3.41615
3.23594
3.05006
2.86289
2.67794
2.49787
2.32471
2.15989
2.00397
1.85624
1.71671
1.585
1.45702
1.35081
1.25144
1.14989
1.06549
0.988244
0.916583
0.848695
0.785073
0.725867
0.670957
0.620194
0.573402
0.530396
0.49099
0.455004
0.422259
0.392572
0.365761
0.341645
0.320053
0.300818
0.283779
0.26878
0.255669
0.244297
0.234521
0.226199
0.219187
0.213364
0.208562
0.204683
0.20162
0.19928
0.197577
0.196432
0.195773
0.195531
0.195645
0.196061
0.196731
0.197572
0.198547
0.199621
0.200769
0.201977
0.203232
0.204522
0.205838
0.207173
0.208517
0.209856
0.211172
0.212445
0.21367
0.214851
0.216001
0.217129
0.218239
0.219338
0.220428
0.221513
0.22259
0.223643
0.224653
0.225613
0.226533
0.227428
0.228312
0.229191
0.230066
0.230941
0.231816
0.232688
0.23354
0.23434
0.235066
0.235711
0.236277
0.236762
0.237154
0.237443
0.237685
0.238088
0.239397
0.239954
-1.65335
-1.64891
-1.73263
-1.8595
-1.98491
-2.08982
-2.16479
-2.20288
-2.18567
-2.11662
-2.01523
-1.91018
-1.82602
-1.77574
-1.75999
-1.77216
-1.8053
-1.85458
-1.91793
-1.9971
-2.09595
-2.21935
-2.37222
-2.5583
-2.7801
-3.03866
-3.33347
-3.66247
-4.02231
-4.40857
-4.81608
-5.23921
-5.6721
-6.10884
-6.54358
-6.97062
-7.38444
-7.77966
-8.1511
-8.49369
-8.80249
-9.0727
-9.2996
-9.47861
-9.60528
-9.6752
-9.68409
-9.62827
-9.50587
-9.31892
-9.07386
-8.76662
-8.39657
-7.96527
-7.47571
-6.93211
-6.33975
-5.70491
-5.03479
-4.33739
-3.62139
-2.89596
-2.17061
-1.45491
-0.75831
-0.0898965
0.541866
1.12935
1.66595
2.14629
2.56637
2.92358
3.21687
3.44661
3.61461
3.72398
3.77896
3.7847
3.747
3.67185
3.56593
3.43617
3.28873
3.12908
2.96199
2.79159
2.62123
2.45362
2.29085
2.13493
1.98738
1.84796
1.71591
1.59271
1.48023
1.36459
1.26028
1.17086
1.07955
0.996731
0.921333
0.852553
0.788813
0.729629
0.674763
0.623997
0.577142
0.534015
0.494444
0.458261
0.425302
0.395398
0.36837
0.34404
0.322236
0.302791
0.285547
0.270349
0.257045
0.245489
0.23554
0.227065
0.219926
0.213987
0.209096
0.20513
0.201982
0.199558
0.197774
0.196552
0.195819
0.195509
0.195566
0.195934
0.196556
0.197385
0.198353
0.199417
0.200552
0.201741
0.202975
0.204242
0.205533
0.206843
0.208169
0.209507
0.210835
0.212128
0.213368
0.214557
0.215708
0.216832
0.217936
0.219025
0.220103
0.221179
0.222259
0.223334
0.224375
0.225362
0.2263
0.227208
0.228102
0.228989
0.229873
0.230755
0.231641
0.232539
0.233439
0.234308
0.23511
0.235834
0.236484
0.237062
0.237556
0.237917
0.238115
0.238228
0.239055
0.23884
-1.82527
-1.85924
-1.94796
-2.04902
-2.13816
-2.20388
-2.23934
-2.24006
-2.2031
-2.13083
-2.03514
-1.93459
-1.84739
-1.78493
-1.7501
-1.74122
-1.75672
-1.79727
-1.86549
-1.96478
-2.09778
-2.26573
-2.46884
-2.70657
-2.9776
-3.27984
-3.6105
-3.96627
-4.34343
-4.738
-5.14585
-5.56273
-5.98435
-6.40638
-6.82445
-7.23417
-7.6311
-8.01077
-8.36868
-8.7003
-9.00112
-9.26665
-9.49246
-9.67427
-9.80802
-9.88967
-9.91499
-9.87993
-9.78184
-9.61998
-9.39527
-9.10733
-8.75666
-8.34489
-7.87475
-7.35012
-6.77594
-6.15816
-5.50369
-4.82023
-4.11618
-3.40046
-2.68231
-1.97112
-1.27615
-0.606323
0.0299775
0.625172
1.17266
1.66699
2.10401
2.48094
2.79644
3.05058
3.24479
3.38176
3.46527
3.50001
3.49132
3.445
3.3672
3.26401
3.1411
3.00377
2.85673
2.70406
2.54918
2.39492
2.24353
2.09689
1.95618
1.82261
1.69555
1.57601
1.46399
1.35467
1.25444
1.16317
1.07485
0.992414
0.917125
0.848224
0.784489
0.725442
0.670793
0.620294
0.573731
0.530908
0.491639
0.455752
0.423073
0.39343
0.366642
0.342532
0.320924
0.301655
0.284564
0.269501
0.256314
0.244859
0.234997
0.226595
0.219518
0.213627
0.208779
0.204849
0.20173
0.199327
0.197557
0.196344
0.195616
0.195309
0.195366
0.195736
0.196362
0.197189
0.198158
0.199221
0.200354
0.20154
0.202768
0.204028
0.205313
0.206618
0.207941
0.209277
0.210607
0.211903
0.213146
0.214338
0.215488
0.21661
0.217712
0.218799
0.219876
0.220952
0.222035
0.223116
0.224167
0.225165
0.226112
0.227026
0.227925
0.228817
0.229707
0.230598
0.231495
0.232409
0.233332
0.23423
0.235065
0.235822
0.236504
0.237113
0.237631
0.238006
0.238198
0.238215
0.239001
0.238263
-1.79624
-1.84314
-1.93967
-2.02969
-2.10138
-2.15121
-2.17521
-2.17093
-2.13886
-2.08429
-2.01707
-1.94919
-1.8913
-1.85072
-1.83194
-1.83845
-1.87382
-1.94147
-2.04382
-2.18177
-2.35473
-2.56104
-2.79852
-3.06482
-3.35755
-3.67432
-4.01274
-4.37036
-4.7446
-5.13278
-5.53201
-5.93919
-6.35104
-6.76402
-7.17437
-7.57815
-7.97117
-8.34908
-8.70738
-9.04142
-9.34645
-9.6177
-9.85041
-10.0399
-10.1818
-10.2719
-10.3062
-10.2813
-10.1947
-10.0451
-9.83128
-9.55298
-9.21066
-8.80585
-8.34118
-7.82036
-7.24822
-6.63062
-5.97439
-5.28723
-4.57754
-3.85428
-3.1268
-2.40457
-1.69698
-1.01312
-0.361534
0.250032
0.814789
1.3271
1.78263
2.1784
2.51289
2.786
2.99899
3.1544
3.25588
3.30799
3.31599
3.28575
3.22349
3.13485
3.02532
2.90025
2.76444
2.62203
2.47654
2.33082
2.18715
2.04732
1.91258
1.78384
1.66134
1.54547
1.43596
1.33173
1.23442
1.14357
1.05762
0.977223
0.90318
0.835013
0.77202
0.713761
0.659928
0.610256
0.564516
0.522499
0.484012
0.448869
0.416892
0.387901
0.361718
0.338163
0.317065
0.298258
0.281587
0.2669
0.254052
0.242899
0.233305
0.225136
0.218259
0.212538
0.20784
0.204041
0.201037
0.198733
0.197048
0.195907
0.19524
0.194985
0.195085
0.195487
0.196137
0.19698
0.197961
0.199036
0.200178
0.201372
0.202605
0.20387
0.20516
0.206468
0.207793
0.209126
0.210451
0.211743
0.212985
0.214177
0.215328
0.216449
0.217551
0.218639
0.219719
0.220799
0.221881
0.222959
0.224007
0.225006
0.225956
0.226873
0.227774
0.228669
0.229563
0.23046
0.231365
0.232284
0.23321
0.23411
0.234947
0.235707
0.236389
0.23699
0.237493
0.237856
0.238068
0.238118
0.238981
0.238063
-1.50942
-1.58469
-1.70782
-1.81154
-1.88565
-1.93646
-1.96612
-1.97588
-1.96874
-1.95004
-1.92686
-1.90679
-1.8967
-1.90242
-1.92899
-1.98084
-2.06148
-2.17318
-2.31676
-2.49166
-2.69647
-2.92927
-3.18807
-3.47091
-3.77592
-4.10131
-4.44532
-4.8061
-5.18168
-5.56992
-5.96846
-6.37467
-6.78567
-7.19829
-7.60906
-8.01425
-8.40982
-8.79151
-9.1548
-9.49499
-9.80723
-10.0866
-10.3281
-10.5268
-10.678
-10.7773
-10.8205
-10.8039
-10.7249
-10.5812
-10.3717
-10.0955
-9.75328
-9.3463
-8.87717
-8.34956
-7.7683
-7.13929
-6.46944
-5.76659
-5.03933
-4.29685
-3.54875
-2.80478
-2.07465
-1.36776
-0.692952
-0.0582885
0.529158
1.06349
1.54012
1.9559
2.30911
2.59953
2.82834
2.99805
3.11231
3.17573
3.19367
3.17226
3.11774
3.03583
2.93229
2.81268
2.68196
2.54442
2.40365
2.26258
2.1235
1.98813
1.85772
1.73306
1.61454
1.50232
1.39624
1.29586
1.20158
1.11321
1.03012
0.952478
0.880544
0.814093
0.752678
0.695925
0.643535
0.595246
0.550828
0.51007
0.472773
0.438749
0.407815
0.379792
0.354501
0.331765
0.311415
0.29329
0.277236
0.263105
0.250753
0.240043
0.230841
0.223015
0.216435
0.210971
0.206499
0.202899
0.200069
0.197918
0.196365
0.195336
0.194765
0.194589
0.194754
0.195206
0.195893
0.196763
0.197767
0.198862
0.200023
0.201231
0.202477
0.203751
0.205048
0.206361
0.207687
0.209016
0.210334
0.21162
0.212859
0.214051
0.215203
0.216326
0.217429
0.218518
0.2196
0.220679
0.221757
0.222827
0.223868
0.224864
0.225816
0.226735
0.227637
0.228532
0.229428
0.230327
0.231233
0.232149
0.233066
0.233954
0.234781
0.235531
0.2362
0.236784
0.237269
0.237628
0.237884
0.238019
0.23898
0.238073
-1.04708
-1.18598
-1.33914
-1.46321
-1.55251
-1.61823
-1.66707
-1.70371
-1.73304
-1.76039
-1.79099
-1.82956
-1.88033
-1.94715
-2.03354
-2.14245
-2.27599
-2.43532
-2.62061
-2.83133
-3.06643
-3.32463
-3.60458
-3.90495
-4.22446
-4.56184
-4.91576
-5.28483
-5.66749
-6.062
-6.46634
-6.87825
-7.29512
-7.71405
-8.13174
-8.54459
-8.94864
-9.3396
-9.71291
-10.0637
-10.3871
-10.6777
-10.9305
-11.1403
-11.302
-11.4108
-11.4624
-11.4529
-11.3791
-11.2385
-11.0295
-10.7512
-10.404
-9.98926
-9.5094
-8.96816
-8.37041
-7.72221
-7.03064
-6.30379
-5.55053
-4.78041
-4.0034
-3.22965
-2.4693
-1.73216
-1.02749
-0.363738
0.251668
0.812512
1.31394
1.75256
2.1265
2.43541
2.68043
2.86405
2.98999
3.06301
3.08871
3.07353
3.02376
2.94539
2.84469
2.72749
2.599
2.4637
2.32535
2.18695
2.05083
1.9187
1.79173
1.67066
1.55581
1.44729
1.34492
1.24845
1.15786
1.07295
0.993382
0.919081
0.850084
0.786217
0.727156
0.67259
0.622244
0.575872
0.53325
0.494172
0.458442
0.425874
0.396289
0.369508
0.345358
0.323668
0.304272
0.287015
0.271745
0.258319
0.246599
0.236451
0.227744
0.220353
0.214153
0.209021
0.204838
0.201494
0.198888
0.196932
0.195547
0.194662
0.194213
0.194138
0.194385
0.194901
0.195637
0.196545
0.197579
0.198702
0.199886
0.201114
0.202376
0.203662
0.204967
0.206285
0.207611
0.208934
0.210244
0.211522
0.212759
0.213951
0.215104
0.216228
0.217332
0.218422
0.219502
0.220578
0.22165
0.222709
0.223741
0.224733
0.225684
0.226604
0.227507
0.228403
0.229297
0.230194
0.231095
0.232002
0.232903
0.233773
0.234583
0.235318
0.235973
0.236542
0.237018
0.237389
0.237702
0.237936
0.238972
0.238172
-0.552869
-0.724944
-0.919322
-1.07526
-1.18885
-1.27921
-1.35711
-1.42916
-1.5013
-1.57885
-1.66587
-1.76514
-1.87864
-2.00803
-2.15481
-2.3203
-2.50546
-2.71084
-2.93654
-3.18233
-3.44774
-3.73214
-4.03486
-4.3552
-4.69243
-5.04574
-5.41425
-5.79693
-6.19256
-6.59967
-7.01652
-7.44102
-7.87075
-8.30292
-8.73434
-9.16141
-9.58017
-9.98628
-10.375
-10.7415
-11.0803
-11.3862
-11.6537
-11.8772
-12.0515
-12.1715
-12.2324
-12.2299
-12.1608
-12.0221
-11.8119
-11.5291
-11.174
-10.7478
-10.2529
-9.69319
-9.07362
-8.4004
-7.68089
-6.92347
-6.13742
-5.3327
-4.51975
-3.70925
-2.91182
-2.1378
-1.39693
-0.698139
-0.049268
0.543097
1.07379
1.53915
1.93713
2.26724
2.53053
2.72952
2.86801
2.95093
2.98427
2.97469
2.92856
2.85251
2.75327
2.63704
2.50935
2.37497
2.23785
2.10114
1.96722
1.83777
1.71393
1.59636
1.4853
1.38077
1.28258
1.19045
1.10417
1.02346
0.948036
0.877712
0.812381
0.751852
0.695859
0.644129
0.596412
0.552479
0.512116
0.475128
0.441326
0.410534
0.382579
0.357292
0.334507
0.314062
0.2958
0.279571
0.26523
0.25264
0.241668
0.232187
0.22407
0.217199
0.211454
0.20672
0.202885
0.199847
0.197509
0.195787
0.194604
0.193892
0.193588
0.193635
0.19398
0.194575
0.195372
0.196327
0.1974
0.198555
0.199767
0.201019
0.2023
0.2036
0.204914
0.206237
0.207561
0.208879
0.21018
0.211451
0.212683
0.213874
0.215029
0.216154
0.217257
0.218346
0.219424
0.220494
0.221557
0.222604
0.223626
0.224611
0.225561
0.226481
0.227384
0.228278
0.229169
0.23006
0.230953
0.231846
0.232727
0.233575
0.234367
0.235087
0.235729
0.236289
0.236766
0.237159
0.23753
0.237857
0.238932
0.238285
-0.122075
-0.321644
-0.553555
-0.73611
-0.875668
-0.994798
-1.10563
-1.21538
-1.33035
-1.45559
-1.59426
-1.74782
-1.91666
-2.10082
-2.30038
-2.51552
-2.74647
-2.99345
-3.25659
-3.53596
-3.83153
-4.14319
-4.47082
-4.81418
-5.17297
-5.54679
-5.93505
-6.337
-6.75162
-7.17765
-7.61348
-8.05718
-8.50641
-8.95843
-9.41007
-9.85774
-10.2974
-10.7246
-11.1344
-11.5218
-11.8811
-12.2068
-12.4931
-12.734
-12.924
-13.0576
-13.1297
-13.1357
-13.0719
-12.9351
-12.7231
-12.4346
-12.0698
-11.6297
-11.1169
-10.5352
-9.88967
-9.18686
-8.43438
-7.64099
-6.81641
-5.9711
-5.11606
-4.26254
-3.42178
-2.60469
-1.8216
-1.08194
-0.394054
0.235071
0.799907
1.29652
1.7226
2.07753
2.36225
2.57925
2.73241
2.82685
2.869
2.86556
2.82325
2.74945
2.65135
2.53562
2.40822
2.27426
2.13797
2.00264
1.87074
1.74397
1.62341
1.50962
1.40278
1.30279
1.20938
1.1222
1.0409
0.965115
0.894511
0.828824
0.767845
0.711351
0.659091
0.610815
0.56629
0.525302
0.487651
0.453152
0.421632
0.392925
0.366871
0.343314
0.322102
0.303084
0.286117
0.27106
0.257777
0.246138
0.236018
0.227297
0.219855
0.21358
0.208359
0.204085
0.200654
0.19797
0.195942
0.194489
0.193539
0.193027
0.192891
0.193079
0.193539
0.194226
0.195097
0.19611
0.197228
0.198422
0.199667
0.200945
0.202247
0.203562
0.204886
0.206212
0.207536
0.208848
0.210141
0.211405
0.212632
0.213821
0.214975
0.2161
0.217203
0.218289
0.219362
0.220425
0.221477
0.222513
0.223523
0.224502
0.225447
0.226366
0.227267
0.228158
0.229044
0.229928
0.230809
0.231686
0.232546
0.233373
0.234145
0.23485
0.235482
0.236039
0.236523
0.236942
0.237366
0.237769
0.238849
0.238368
0.179953
-0.0395038
-0.298963
-0.503484
-0.665477
-0.810932
-0.95212
-1.09611
-1.24879
-1.41453
-1.59575
-1.7931
-2.00614
-2.23408
-2.47621
-2.73211
-3.00161
-3.28475
-3.5817
-3.89267
-4.21791
-4.55765
-4.91204
-5.28119
-5.66506
-6.06348
-6.47608
-6.90228
-7.34123
-7.79177
-8.25243
-8.72132
-9.19617
-9.67423
-10.1523
-10.6268
-11.0934
-11.5476
-11.9844
-12.3982
-12.7833
-13.1337
-13.4432
-13.7057
-13.9149
-14.0652
-14.151
-14.1673
-14.1101
-13.976
-13.7623
-13.4677
-13.0922
-12.6367
-12.1038
-11.4975
-10.8229
-10.0869
-9.29741
-8.4636
-7.59568
-6.7047
-5.80226
-4.90029
-4.01067
-3.14501
-2.31425
-1.52842
-0.796368
-0.125535
0.478177
1.01052
1.46896
1.85265
2.16243
2.40073
2.57144
2.67998
2.7329
2.73699
2.6997
2.62899
2.53261
2.41778
2.29095
2.15768
2.02248
1.88887
1.7594
1.6358
1.51909
1.40975
1.30782
1.21313
1.12529
1.04382
0.968265
0.898163
0.833103
0.772742
0.716796
0.665002
0.617107
0.572871
0.532074
0.494515
0.460009
0.428387
0.399491
0.37317
0.34928
0.327684
0.308244
0.290829
0.275309
0.261557
0.249449
0.238867
0.229694
0.221818
0.215129
0.209521
0.204889
0.201133
0.198157
0.195872
0.194193
0.193044
0.192357
0.192069
0.192124
0.192471
0.193062
0.193856
0.194811
0.195892
0.197065
0.198303
0.199583
0.200891
0.202215
0.203547
0.204881
0.206212
0.207534
0.208842
0.210128
0.211384
0.212606
0.213791
0.214943
0.216066
0.217166
0.218248
0.219316
0.22037
0.221411
0.222435
0.223434
0.224404
0.225345
0.226261
0.227158
0.228045
0.228924
0.229798
0.230667
0.231526
0.232366
0.233172
0.233926
0.234618
0.235243
0.235799
0.236293
0.23674
0.237205
0.237666
0.238719
0.238398
0.31982
0.0932203
-0.175062
-0.393401
-0.573469
-0.740497
-0.906562
-1.0783
-1.26089
-1.45801
-1.67151
-1.90171
-2.1479
-2.40902
-2.68408
-2.97239
-3.2736
-3.58765
-3.91469
-4.25501
-4.60896
-4.97691
-5.3592
-5.75605
-6.16761
-6.59383
-7.03449
-7.4891
-7.95693
-8.43689
-8.92755
-9.42707
-9.93315
-10.443
-10.9534
-11.4606
-11.9601
-12.4471
-12.9164
-13.3622
-13.7782
-14.1582
-14.4955
-14.7834
-15.0156
-15.1856
-15.2877
-15.3163
-15.2673
-15.1368
-14.922
-14.6213
-14.2346
-13.7627
-13.2084
-12.5755
-11.8696
-11.0976
-10.2679
-9.39012
-8.475
-7.53419
-6.58001
-5.62508
-4.68206
-3.76327
-2.88035
-2.04395
-1.26346
-0.546788
0.0998037
0.671769
1.16633
1.58246
1.92085
2.1838
2.3752
2.50072
2.56686
2.58064
2.55026
2.48424
2.39091
2.27811
2.15289
2.02126
1.88812
1.75719
1.63114
1.51171
1.39986
1.29598
1.19998
1.11157
1.03024
0.955389
0.886442
0.822838
0.764084
0.709762
0.659527
0.613078
0.570151
0.530511
0.493948
0.460276
0.429328
0.40095
0.375004
0.351359
0.329889
0.310477
0.293006
0.277363
0.263437
0.251119
0.2403
0.230874
0.222737
0.215787
0.209923
0.205047
0.201064
0.197881
0.195409
0.193566
0.192273
0.19146
0.191063
0.191024
0.19129
0.191814
0.192552
0.193465
0.194517
0.195675
0.19691
0.198197
0.199518
0.200857
0.202205
0.203554
0.204898
0.206233
0.207555
0.208859
0.210138
0.211387
0.212602
0.213783
0.214931
0.216051
0.217147
0.218224
0.219284
0.220329
0.221359
0.22237
0.223358
0.224319
0.225254
0.226165
0.227058
0.227938
0.22881
0.229673
0.230528
0.231371
0.232191
0.232977
0.233715
0.234396
0.235015
0.235573
0.236079
0.236548
0.237044
0.237544
0.238549
0.238371
0.30352
0.0827949
-0.181005
-0.403766
-0.594496
-0.776091
-0.959752
-1.15144
-1.35553
-1.57507
-1.81155
-2.06518
-2.33529
-2.62087
-2.92095
-3.23479
-3.56197
-3.90239
-4.25615
-4.62355
-5.00496
-5.4008
-5.81144
-6.2372
-6.67828
-7.13472
-7.60635
-8.09276
-8.59325
-9.10678
-9.63192
-10.1668
-10.7091
-11.256
-11.804
-12.3492
-12.8869
-13.4121
-13.9191
-14.4017
-14.8534
-15.2673
-15.6363
-15.9534
-16.2116
-16.4042
-16.5248
-16.5676
-16.5282
-16.4023
-16.1869
-15.8804
-15.4823
-14.9936
-14.4168
-13.7562
-13.0173
-12.2074
-11.3352
-10.4109
-9.44569
-8.45196
-7.44274
-6.43149
-5.43165
-4.45636
-3.518
-2.62789
-1.79597
-1.03059
-0.338348
0.275964
0.809381
1.26073
1.63055
1.92101
2.1361
2.28133
2.36314
2.38915
2.36801
2.30877
2.22039
2.11141
1.98948
1.86115
1.73166
1.605
1.48393
1.37018
1.26467
1.16762
1.07886
0.997948
0.924248
0.857053
0.795661
0.739423
0.687768
0.640212
0.596358
0.555878
0.518494
0.483976
0.452124
0.422769
0.395763
0.370975
0.348286
0.327589
0.308781
0.291766
0.276452
0.262746
0.250558
0.239799
0.230378
0.222205
0.215189
0.209241
0.204271
0.20019
0.196912
0.194352
0.192429
0.191068
0.190196
0.18975
0.189669
0.189902
0.190398
0.191115
0.192014
0.193059
0.194217
0.195461
0.196764
0.198106
0.19947
0.200843
0.202216
0.203582
0.204937
0.206278
0.207599
0.208899
0.210171
0.211413
0.212622
0.213796
0.214939
0.216054
0.217144
0.218214
0.219266
0.220301
0.22132
0.222319
0.223295
0.224247
0.225174
0.226079
0.226967
0.22784
0.228702
0.229555
0.230396
0.231222
0.232024
0.232792
0.233516
0.234186
0.234801
0.235362
0.235878
0.236366
0.236881
0.237403
0.238345
0.23829
0.164547
-0.0426629
-0.292828
-0.512118
-0.706644
-0.896133
-1.09054
-1.29508
-1.51341
-1.74802
-2.00018
-2.27008
-2.55724
-2.86085
-3.18006
-3.51423
-3.86295
-4.2261
-4.60377
-4.99622
-5.40381
-5.82694
-6.266
-6.72132
-7.19313
-7.68149
-8.18626
-8.70707
-9.24322
-9.79367
-10.357
-10.9312
-11.5139
-12.102
-12.6921
-13.2798
-13.8602
-14.4279
-14.9769
-15.5004
-15.9914
-16.4427
-16.8466
-17.1956
-17.4822
-17.6993
-17.8401
-17.8985
-17.8696
-17.7491
-17.5337
-17.2216
-16.8123
-16.3066
-15.7072
-15.0183
-14.2457
-13.3968
-12.4809
-11.5084
-10.4914
-9.44279
-8.37645
-7.3067
-6.2479
-5.21405
-4.21834
-3.27282
-2.38797
-1.57256
-0.833465
-0.17563
0.397893
0.885861
1.2887
1.6085
1.84925
2.0163
2.11614
2.1568
2.14726
2.0971
2.01595
1.91301
1.79659
1.67375
1.55013
1.42991
1.31593
1.20989
1.11261
1.02416
0.944238
0.872266
0.807492
0.749095
0.696278
0.648312
0.604563
0.564496
0.527679
0.493762
0.462463
0.433556
0.406858
0.382218
0.359511
0.33863
0.319482
0.301985
0.286063
0.271645
0.258663
0.247049
0.236736
0.227656
0.219738
0.212911
0.207098
0.202225
0.198214
0.194986
0.192465
0.190575
0.189243
0.1884
0.187982
0.18793
0.18819
0.188714
0.189458
0.190383
0.191455
0.192643
0.193917
0.195253
0.196631
0.198032
0.199442
0.20085
0.202249
0.203633
0.204999
0.206344
0.207666
0.208961
0.210227
0.211461
0.212662
0.21383
0.214966
0.216074
0.217158
0.218219
0.219262
0.220286
0.221293
0.22228
0.223245
0.224187
0.225106
0.226004
0.226884
0.227749
0.228602
0.229443
0.230271
0.23108
0.231866
0.232618
0.233329
0.233991
0.234602
0.235164
0.235689
0.236189
0.236715
0.237246
0.238116
0.238161
-0.0579295
-0.247094
-0.47818
-0.688491
-0.881471
-1.07351
-1.27323
-1.48509
-1.71218
-1.95654
-2.21924
-2.50053
-2.80012
-3.1174
-3.45175
-3.80265
-4.16976
-4.55299
-4.95241
-5.36825
-5.80086
-6.25062
-6.7179
-7.20304
-7.70625
-8.22762
-8.76701
-9.32404
-9.89799
-10.4878
-11.0919
-11.7084
-12.3346
-12.9673
-13.6026
-14.2361
-14.8625
-15.4759
-16.0696
-16.6367
-17.1696
-17.6604
-18.1011
-18.4835
-18.7999
-19.0426
-19.2045
-19.2791
-19.2613
-19.1468
-18.9319
-18.6147
-18.1946
-17.6723
-17.0506
-16.3336
-15.5274
-14.6396
-13.6798
-12.6589
-11.5895
-10.4854
-9.36116
-8.23209
-7.11353
-6.02044
-4.96692
-3.96575
-3.02802
-2.16288
-1.37738
-0.676543
-0.063366
0.460919
0.896709
1.24628
1.51351
1.70351
1.82302
1.88017
1.88428
1.84539
1.77377
1.6793
1.57091
1.45619
1.34109
1.22998
1.1257
1.02986
0.943113
0.865357
0.796139
0.734758
0.680343
0.631983
0.588811
0.550042
0.515002
0.483129
0.453971
0.427173
0.402457
0.37961
0.358467
0.338902
0.320816
0.30413
0.288779
0.274711
0.261878
0.250237
0.239747
0.230367
0.222054
0.214765
0.208448
0.203052
0.19852
0.19479
0.191797
0.189477
0.187761
0.186584
0.18588
0.185589
0.185653
0.18602
0.186642
0.187475
0.188483
0.189629
0.190885
0.192224
0.193621
0.195057
0.196513
0.197976
0.199434
0.200878
0.202303
0.203706
0.205083
0.206432
0.207754
0.209045
0.210304
0.21153
0.212723
0.213882
0.215011
0.216111
0.217185
0.218238
0.21927
0.220283
0.221278
0.222253
0.223207
0.224139
0.225049
0.225938
0.22681
0.227667
0.22851
0.229339
0.230153
0.230948
0.231718
0.232456
0.233155
0.233809
0.234416
0.23498
0.235509
0.236018
0.236546
0.237075
0.237869
0.237995
-0.326932
-0.495463
-0.704332
-0.90193
-1.08951
-1.28026
-1.48145
-1.69688
-1.9291
-2.1798
-2.44988
-2.73964
-3.04892
-3.37734
-3.72444
-4.08987
-4.47338
-4.87492
-5.29458
-5.73259
-6.18927
-6.665
-7.16015
-7.67503
-8.20987
-8.76474
-9.33949
-9.93374
-10.5467
-11.1773
-11.8239
-12.4843
-13.1558
-13.8349
-14.5175
-15.1986
-15.8726
-16.5331
-17.173
-17.7849
-18.3604
-18.8914
-19.3693
-19.7855
-20.1317
-20.4002
-20.5831
-20.674
-20.6676
-20.5593
-20.3454
-20.0237
-19.5935
-19.0556
-18.4127
-17.6688
-16.8302
-15.9048
-14.9022
-13.8341
-12.7133
-11.5545
-10.3732
-9.1855
-8.00789
-6.85638
-5.74605
-4.69051
-3.70144
-2.78837
-1.95849
-1.21675
-0.566036
-0.00742616
0.459847
0.83813
1.13118
1.34419
1.48391
1.55856
1.57771
1.55184
1.49181
1.40816
1.31041
1.20663
1.10304
1.00406
0.912467
0.829673
0.756078
0.691373
0.634949
0.585964
0.543445
0.506419
0.473979
0.445323
0.419767
0.396749
0.375823
0.356645
0.338956
0.322564
0.30733
0.293157
0.279976
0.267738
0.256411
0.245973
0.236408
0.227703
0.219846
0.212825
0.206624
0.201223
0.196595
0.192709
0.189526
0.186999
0.18508
0.183715
0.182847
0.18242
0.182378
0.182668
0.183239
0.184046
0.185047
0.186205
0.187487
0.188866
0.190314
0.191811
0.193337
0.194876
0.196414
0.197941
0.199448
0.20093
0.202381
0.203801
0.205188
0.206542
0.207862
0.209149
0.210401
0.211618
0.212802
0.213952
0.215071
0.216162
0.217226
0.218269
0.21929
0.220291
0.221274
0.222237
0.223179
0.2241
0.225001
0.225882
0.226745
0.227592
0.228425
0.229243
0.230044
0.230825
0.231581
0.232306
0.232994
0.23364
0.234244
0.234807
0.235339
0.235851
0.236375
0.236894
0.237613
0.237802
-0.60704
-0.753611
-0.938675
-1.12133
-1.30115
-1.48834
-1.68885
-1.90583
-2.14135
-2.39678
-2.67285
-2.96984
-3.2877
-3.62618
-3.98501
-4.36394
-4.76284
-5.18172
-5.6207
-6.08004
-6.56005
-7.06112
-7.58361
-8.12785
-8.69406
-9.2823
-9.89244
-10.524
-11.1763
-11.848
-12.5374
-13.2422
-13.9593
-14.6852
-15.4152
-16.144
-16.8656
-17.573
-18.2587
-18.9147
-19.5322
-20.1025
-20.6166
-21.0655
-21.4408
-21.734
-21.9374
-22.0441
-22.0489
-21.9469
-21.7344
-21.4091
-20.9701
-20.4182
-19.7558
-18.9873
-18.1187
-17.1581
-16.1155
-15.0027
-13.8333
-12.6223
-11.3863
-10.1423
-8.90795
-7.70037
-6.53571
-5.42847
-4.39101
-3.43319
-2.56232
-1.78323
-1.09855
-0.508851
-0.0130275
0.391398
0.708328
0.943027
1.10224
1.19429
1.22896
1.21713
1.17022
1.09938
1.01472
0.924687
0.835682
0.752064
0.67637
0.609704
0.55209
0.502963
0.461544
0.426838
0.397786
0.373387
0.352742
0.335066
0.319707
0.306137
0.293944
0.282817
0.27253
0.262925
0.253897
0.245382
0.237343
0.229768
0.222657
0.216021
0.209877
0.204243
0.19914
0.194584
0.190589
0.187159
0.184294
0.181982
0.180205
0.178934
0.178134
0.177764
0.17778
0.178134
0.178781
0.179674
0.180772
0.182035
0.183429
0.184923
0.18649
0.188107
0.189754
0.191413
0.193071
0.194717
0.196339
0.197931
0.199487
0.201005
0.202483
0.203919
0.205316
0.206673
0.207992
0.209273
0.210517
0.211725
0.212898
0.214038
0.215146
0.216226
0.21728
0.218311
0.21932
0.22031
0.22128
0.22223
0.223161
0.224072
0.224962
0.225834
0.226687
0.227525
0.228347
0.229154
0.229942
0.23071
0.231453
0.232166
0.232844
0.233483
0.234083
0.234645
0.235177
0.235688
0.236202
0.236707
0.237353
0.237589
-0.875457
-0.999125
-1.15975
-1.32635
-1.49726
-1.67998
-1.87915
-2.09725
-2.33586
-2.596
-2.87825
-3.18278
-3.50959
-3.85853
-4.22942
-4.62213
-5.03664
-5.473
-5.93141
-6.41215
-6.91556
-7.44205
-7.992
-8.56573
-9.16349
-9.78533
-10.4311
-11.1003
-11.7921
-12.5051
-13.2375
-13.9868
-14.7497
-15.5222
-16.2993
-17.0753
-17.8438
-18.5972
-19.3276
-20.0264
-20.6844
-21.2925
-21.8413
-22.3215
-22.7243
-23.0411
-23.2639
-23.3858
-23.4014
-23.3057
-23.0948
-22.7664
-22.3195
-21.7547
-21.0745
-20.2832
-19.3868
-18.3935
-17.3134
-16.1586
-14.943
-13.6825
-12.3942
-11.0963
-9.80752
-8.54623
-7.32974
-6.17356
-5.09076
-4.09163
-3.18356
-2.37113
-1.65641
-1.03952
-0.518974
-0.0918327
0.246036
0.500034
0.676998
0.785353
0.8351
0.837531
0.804613
0.748123
0.678718
0.605173
0.533952
0.469186
0.412993