/*--------------------------------*- C++ -*----------------------------------*\
  =========                 |
  \\      /  F ield         | OpenFOAM: The Open Source CFD Toolbox
   \\    /   O peration     | Website:  https://openfoam.org
    \\  /    A nd           | Version:  9
     \\/     M anipulation  |
\*---------------------------------------------------------------------------*/
FoamFile
{
    format      ascii;
    class       surfaceScalarField;
    location    "0.03";
    object      phi;
}
// * * * * * * * * * * * * * * * * * * * * * * * * * * * * * * * * * * * * * //

dimensions      [0 3 -1 0 0 0 0];

internalField   nonuniform List<scalar> 
24170
(
3.07152e-07
1.16881e-08
2.65335e-07
4.1817e-08
2.32771e-07
3.2564e-08
2.05961e-07
2.68108e-08
1.83824e-07
2.21366e-08
1.65567e-07
1.82575e-08
1.4966e-07
1.59066e-08
1.35266e-07
1.43942e-08
1.22029e-07
1.32369e-08
1.09668e-07
1.23611e-08
9.78433e-08
1.18245e-08
8.62319e-08
1.16114e-08
7.4715e-08
1.15169e-08
6.36728e-08
1.10421e-08
5.50467e-08
8.6261e-09
5.39725e-08
1.07419e-09
8.27774e-08
-2.88049e-08
4.79359e-08
3.48415e-08
3.44262e-07
9.15117e-09
3.35893e-07
5.01856e-08
3.20115e-07
4.83427e-08
3.02627e-07
4.4298e-08
2.84597e-07
4.01672e-08
2.66273e-07
3.65816e-08
2.47854e-07
3.43253e-08
2.29482e-07
3.27662e-08
2.11386e-07
3.13327e-08
1.93743e-07
3.00047e-08
1.76545e-07
2.90217e-08
1.59617e-07
2.85397e-08
1.42745e-07
2.83887e-08
1.26087e-07
2.77009e-08
1.10777e-07
2.39358e-08
1.01128e-07
1.07228e-08
9.71605e-08
-2.4837e-08
9.30944e-08
5.20019e-08
3.64178e-07
1.12248e-08
3.65525e-07
4.88384e-08
3.59204e-07
5.4664e-08
3.48792e-07
5.47096e-08
3.35275e-07
5.36846e-08
3.19355e-07
5.25016e-08
3.01706e-07
5.19738e-08
2.82878e-07
5.15942e-08
2.63427e-07
5.07838e-08
2.43847e-07
4.95848e-08
2.24426e-07
4.84431e-08
2.05189e-07
4.77764e-08
1.85981e-07
4.75968e-08
1.66757e-07
4.69252e-08
1.47923e-07
4.27695e-08
1.30518e-07
2.81276e-08
1.07119e-07
-1.43829e-09
1.2436e-07
7.58535e-08
3.9155e-07
1.22133e-08
3.93813e-07
4.6576e-08
3.91139e-07
5.73374e-08
3.84368e-07
6.14815e-08
3.73944e-07
6.41082e-08
3.60284e-07
6.61619e-08
3.43968e-07
6.8289e-08
3.2561e-07
6.99526e-08
3.05882e-07
7.05115e-08
2.85448e-07
7.00187e-08
2.64796e-07
6.90954e-08
2.44128e-07
6.84447e-08
2.23383e-07
6.83413e-08
2.02412e-07
6.78967e-08
1.81036e-07
6.41449e-08
1.58127e-07
5.10371e-08
1.26081e-07
3.06079e-08
1.48543e-07
1.01898e-07
4.20554e-07
1.23717e-08
4.22752e-07
4.43779e-08
4.21727e-07
5.83623e-08
4.17064e-07
6.61449e-08
4.08778e-07
7.2394e-08
3.96978e-07
7.79625e-08
3.82052e-07
8.3215e-08
3.64539e-07
8.74653e-08
3.45102e-07
8.99486e-08
3.24452e-07
9.06689e-08
3.03182e-07
9.03655e-08
2.81622e-07
9.00044e-08
2.59808e-07
9.01554e-08
2.37535e-07
9.01697e-08
2.14212e-07
8.74681e-08
1.8768e-07
7.75683e-08
1.5166e-07
6.66284e-08
1.70619e-07
1.29584e-07
4.50987e-07
1.22932e-08
4.53042e-07
4.2323e-08
4.52829e-07
5.85753e-08
4.49446e-07
6.95277e-08
4.42643e-07
7.91976e-08
4.32314e-07
8.8291e-08
4.18679e-07
9.68496e-08
4.02165e-07
1.0398e-07
3.83356e-07
1.08758e-07
3.6293e-07
1.11094e-07
3.41509e-07
1.11787e-07
3.19497e-07
1.12017e-07
2.97009e-07
1.12643e-07
2.73826e-07
1.13352e-07
2.49124e-07
1.1217e-07
2.20417e-07
1.06276e-07
1.83118e-07
1.03927e-07
1.9262e-07
1.61117e-07
4.8336e-07
1.22056e-08
4.85195e-07
4.04874e-08
4.85331e-07
5.84398e-08
4.82707e-07
7.21517e-08
4.76919e-07
8.49858e-08
4.67736e-07
9.74738e-08
4.55251e-07
1.09334e-07
4.39782e-07
1.19449e-07
4.2181e-07
1.26729e-07
4.01936e-07
1.30969e-07
3.80748e-07
1.32975e-07
3.58682e-07
1.34083e-07
3.35911e-07
1.35415e-07
3.12232e-07
1.37031e-07
2.86753e-07
1.37649e-07
2.57123e-07
1.35905e-07
2.20519e-07
1.40531e-07
2.14989e-07
1.9815e-07
5.18013e-07
1.21511e-08
5.19539e-07
3.89614e-08
5.19741e-07
5.82378e-08
5.17533e-07
7.43587e-08
5.12431e-07
9.00887e-08
5.04137e-07
1.05767e-07
4.92665e-07
1.20807e-07
4.78239e-07
1.33875e-07
4.61242e-07
1.43726e-07
4.42172e-07
1.50039e-07
4.21553e-07
1.53593e-07
3.99812e-07
1.55824e-07
3.7716e-07
1.58066e-07
3.53437e-07
1.60754e-07
3.27817e-07
1.63269e-07
2.98366e-07
1.65356e-07
2.63777e-07
1.7512e-07
2.37349e-07
2.41417e-07
5.55153e-07
1.21315e-08
5.56319e-07
3.77958e-08
5.5642e-07
5.81373e-08
5.54408e-07
7.63704e-08
5.49764e-07
9.47327e-08
5.42173e-07
1.13358e-07
5.31599e-07
1.3138e-07
5.18204e-07
1.4727e-07
5.02279e-07
1.59651e-07
4.8422e-07
1.68099e-07
4.64468e-07
1.73345e-07
4.43417e-07
1.76874e-07
4.21302e-07
1.80182e-07
3.98023e-07
1.84033e-07
3.7291e-07
1.88382e-07
3.44557e-07
1.93709e-07
3.12747e-07
2.0693e-07
2.59029e-07
2.91066e-07
5.94963e-07
1.21464e-08
5.95766e-07
3.69923e-08
5.95677e-07
5.8226e-08
5.93728e-07
7.83203e-08
5.89399e-07
9.90608e-08
5.82388e-07
1.2037e-07
5.72639e-07
1.41129e-07
5.60271e-07
1.59638e-07
5.45501e-07
1.74421e-07
5.28631e-07
1.84969e-07
5.1002e-07
1.91957e-07
4.90016e-07
1.96878e-07
4.68862e-07
2.01336e-07
4.46534e-07
2.06361e-07
4.22562e-07
2.12354e-07
3.96052e-07
2.20219e-07
3.67463e-07
2.3552e-07
2.79345e-07
3.47147e-07
6.37637e-07
1.21904e-08
6.38111e-07
3.65187e-08
6.37809e-07
5.8528e-08
6.35861e-07
8.02684e-08
6.31778e-07
1.03143e-07
6.25287e-07
1.26861e-07
6.16336e-07
1.5008e-07
6.05015e-07
1.70959e-07
5.91487e-07
1.87948e-07
5.75977e-07
2.00479e-07
5.58764e-07
2.0917e-07
5.4015e-07
2.15492e-07
5.20383e-07
2.21103e-07
4.99515e-07
2.27228e-07
4.77286e-07
2.34583e-07
4.53241e-07
2.44265e-07
4.2818e-07
2.6058e-07
2.97697e-07
4.09828e-07
5.74036e-07
1.22381e-08
5.74225e-07
3.63298e-08
5.73832e-07
5.89206e-08
5.72196e-07
8.19049e-08
5.68937e-07
1.06402e-07
5.63859e-07
1.3194e-07
5.56929e-07
1.5701e-07
5.48214e-07
1.79674e-07
5.37823e-07
1.98339e-07
5.25899e-07
2.12403e-07
5.12628e-07
2.22441e-07
4.98232e-07
2.29888e-07
4.82921e-07
2.36414e-07
4.66799e-07
2.43351e-07
4.49799e-07
2.51582e-07
4.31831e-07
2.62234e-07
4.1367e-07
2.78741e-07
3.10986e-07
4.00382e-07
6.9975e-07
1.23032e-08
6.99812e-07
3.62682e-08
6.99254e-07
5.94788e-08
6.97433e-07
8.37257e-08
6.93966e-07
1.09869e-07
6.88664e-07
1.37242e-07
6.8151e-07
1.64164e-07
6.72578e-07
1.88607e-07
6.61969e-07
2.08948e-07
6.49806e-07
2.24565e-07
6.36258e-07
2.3599e-07
6.21546e-07
2.446e-07
6.05912e-07
2.52048e-07
5.89534e-07
2.59728e-07
5.72482e-07
2.68635e-07
5.54878e-07
2.79838e-07
5.37751e-07
2.95867e-07
3.23239e-07
5.25498e-07
8.53027e-07
1.23613e-08
8.53004e-07
3.62903e-08
8.52367e-07
6.01159e-08
8.50506e-07
8.55865e-08
8.47053e-07
1.13322e-07
8.41843e-07
1.42451e-07
8.34884e-07
1.71123e-07
8.26263e-07
1.97228e-07
8.16077e-07
2.19134e-07
8.04428e-07
2.36214e-07
7.91465e-07
2.48953e-07
7.77408e-07
2.58657e-07
7.62531e-07
2.66924e-07
7.47095e-07
2.75164e-07
7.31315e-07
2.84415e-07
7.15523e-07
2.9563e-07
7.00857e-07
3.10533e-07
3.33108e-07
6.90988e-07
1.03992e-06
1.23583e-08
1.03997e-06
3.62423e-08
1.03951e-06
6.05749e-08
1.03798e-06
8.71177e-08
1.03504e-06
1.16269e-07
1.03054e-06
1.46943e-07
1.02454e-06
1.77127e-07
1.01712e-06
2.04645e-07
1.00839e-06
2.27872e-07
9.98414e-07
2.46185e-07
9.87341e-07
2.60027e-07
9.75382e-07
2.70615e-07
9.62843e-07
2.79464e-07
9.5006e-07
2.87947e-07
9.37384e-07
2.97091e-07
9.253e-07
3.07713e-07
9.14928e-07
3.20905e-07
3.38842e-07
9.09194e-07
1.26785e-06
1.2189e-08
1.2683e-06
3.57868e-08
1.26857e-06
6.03116e-08
1.26812e-06
8.75635e-08
1.26665e-06
1.17745e-07
1.26403e-06
1.4956e-07
1.26031e-06
1.80846e-07
1.25558e-06
2.09373e-07
1.24992e-06
2.33534e-07
1.24339e-06
2.52713e-07
1.23611e-06
2.67308e-07
1.22829e-06
2.78434e-07
1.22026e-06
2.87496e-07
1.21241e-06
2.95793e-07
1.2052e-06
3.04309e-07
1.19917e-06
3.13736e-07
1.19536e-06
3.24722e-07
3.38271e-07
1.19593e-06
1.54584e-06
1.16641e-08
1.54731e-06
3.43245e-08
1.54926e-06
5.83531e-08
1.55124e-06
8.55832e-08
1.55293e-06
1.16062e-07
1.55418e-06
1.48312e-07
1.55497e-06
1.80046e-07
1.55535e-06
2.08998e-07
1.55532e-06
2.33567e-07
1.55489e-06
2.53139e-07
1.55415e-06
2.68048e-07
1.55329e-06
2.79294e-07
1.55263e-06
2.8815e-07
1.55261e-06
2.9582e-07
1.55369e-06
3.03229e-07
1.55644e-06
3.10986e-07
1.56167e-06
3.19493e-07
3.29113e-07
1.57082e-06
1.88496e-06
1.04711e-08
1.88837e-06
3.09089e-08
1.89357e-06
5.31546e-08
1.9001e-06
7.90506e-08
1.90762e-06
1.08546e-07
1.91588e-06
1.40052e-07
1.92471e-06
1.71217e-07
1.93395e-06
1.99754e-07
1.94346e-06
2.2406e-07
1.95312e-06
2.43483e-07
1.9629e-06
2.58262e-07
1.97294e-06
2.69254e-07
1.98351e-06
2.7758e-07
1.995e-06
2.84329e-07
2.00787e-06
2.90361e-07
2.02261e-06
2.96246e-07
2.03981e-06
3.02291e-07
3.08617e-07
2.06031e-06
2.29868e-06
8.121e-09
2.30544e-06
2.41495e-08
2.31613e-06
4.24661e-08
2.33029e-06
6.48953e-08
2.34747e-06
9.13587e-08
2.36725e-06
1.20272e-07
2.38916e-06
1.49313e-07
2.4127e-06
1.76214e-07
2.43741e-06
1.9935e-07
2.4629e-06
2.17992e-07
2.48892e-06
2.32237e-07
2.51542e-06
2.42761e-07
2.54248e-06
2.50513e-07
2.57036e-06
2.5645e-07
2.59936e-06
2.61367e-07
2.62978e-06
2.65826e-07
2.66192e-06
2.70153e-07
2.74462e-07
2.69607e-06
1.68338e-06
5.81205e-09
1.69007e-06
1.74603e-08
1.70077e-06
3.17693e-08
1.71509e-06
5.05666e-08
1.73269e-06
7.37623e-08
1.75315e-06
9.98163e-08
1.77599e-06
1.26466e-07
1.80074e-06
1.51471e-07
1.8269e-06
1.7319e-07
1.85406e-06
1.90825e-07
1.88193e-06
2.0437e-07
1.91032e-06
2.14377e-07
1.93916e-06
2.21672e-07
1.96849e-06
2.27114e-07
1.99841e-06
2.31445e-07
2.02903e-06
2.35209e-07
2.06044e-06
2.38749e-07
2.4223e-07
2.09267e-06
1.4658e-06
3.46587e-09
1.47276e-06
1.05053e-08
1.48389e-06
2.06385e-08
1.49875e-06
3.57094e-08
1.51697e-06
5.55426e-08
1.53816e-06
7.86218e-08
1.56189e-06
1.02736e-07
1.5877e-06
1.25661e-07
1.61515e-06
1.4574e-07
1.64384e-06
1.62132e-07
1.67345e-06
1.74758e-07
1.70375e-06
1.84078e-07
1.7346e-06
1.90823e-07
1.76595e-06
1.9577e-07
1.79779e-06
1.99598e-07
1.83018e-06
2.02817e-07
1.86317e-06
2.05762e-07
2.08615e-07
1.89679e-06
1.2762e-06
1.28088e-09
1.28304e-06
3.66244e-09
1.29394e-06
9.74018e-09
1.30832e-06
2.13302e-08
1.32585e-06
3.8014e-08
1.3462e-06
5.82707e-08
1.36902e-06
7.99173e-08
1.39395e-06
1.00729e-07
1.42064e-06
1.19047e-07
1.44875e-06
1.34021e-07
1.47797e-06
1.4554e-07
1.50804e-06
1.54008e-07
1.53878e-06
1.60089e-07
1.57005e-06
1.64492e-07
1.60181e-06
1.67838e-07
1.63404e-06
1.7059e-07
1.66675e-06
1.73057e-07
1.75421e-07
1.69994e-06
1.1109e-06
-5.30951e-10
1.1174e-06
-2.83204e-09
1.12763e-06
-4.94078e-10
1.14088e-06
8.07873e-09
1.1569e-06
2.19985e-08
1.17544e-06
3.97305e-08
1.19627e-06
5.90866e-08
1.21918e-06
7.78246e-08
1.24391e-06
9.43162e-08
1.27018e-06
1.07749e-07
1.2977e-06
1.18018e-07
1.3262e-06
1.25507e-07
1.35546e-06
1.30834e-07
1.3853e-06
1.34651e-07
1.41561e-06
1.37521e-07
1.44635e-06
1.39856e-07
1.47748e-06
1.41928e-07
1.43896e-07
1.509e-06
9.66775e-07
-1.7848e-09
9.72816e-07
-8.87282e-09
9.82129e-07
-9.8069e-09
9.93862e-07
-3.65432e-09
1.00787e-06
7.99063e-09
1.02402e-06
2.35821e-08
1.04223e-06
4.08702e-08
1.06247e-06
5.75919e-08
1.08458e-06
7.22069e-08
1.10833e-06
8.3999e-08
1.13343e-06
9.29147e-08
1.1596e-06
9.93385e-08
1.18658e-06
1.03857e-07
1.21416e-06
1.07069e-07
1.2422e-06
1.09476e-07
1.27062e-06
1.11435e-07
1.29938e-06
1.13172e-07
1.14817e-07
1.32846e-06
8.41067e-07
-2.3168e-09
8.46705e-07
-1.45102e-08
8.54932e-07
-1.80342e-08
8.64869e-07
-1.35914e-08
8.76511e-07
-3.65115e-09
8.8986e-07
1.02328e-08
9.05071e-07
2.56588e-08
9.22284e-07
4.03792e-08
9.41454e-07
5.30371e-08
9.62366e-07
6.30867e-08
9.84719e-07
7.05622e-08
1.00819e-06
7.5866e-08
1.0325e-06
7.9553e-08
1.0574e-06
8.2163e-08
1.08275e-06
8.41287e-08
1.10844e-06
8.5747e-08
1.13441e-06
8.71959e-08
8.85679e-08
1.16066e-06
7.31137e-07
-1.72537e-09
7.36726e-07
-2.00993e-08
7.43703e-07
-2.5011e-08
7.51511e-07
-2.13997e-08
7.60383e-07
-1.25229e-08
7.70546e-07
6.98555e-11
7.82476e-07
1.37288e-08
7.96506e-07
2.63487e-08
8.12648e-07
3.68953e-08
8.3066e-07
4.50743e-08
8.50191e-07
5.10312e-08
8.70874e-07
5.51833e-08
8.92387e-07
5.80405e-08
9.14482e-07
6.00678e-08
9.36991e-07
6.16198e-08
9.59812e-07
6.29257e-08
9.82893e-07
6.41151e-08
6.52461e-08
1.00621e-06
6.34317e-07
9.64624e-10
6.40557e-07
-2.63401e-08
6.45943e-07
-3.03967e-08
6.51057e-07
-2.65139e-08
6.56561e-07
-1.80269e-08
6.63103e-07
-6.47138e-09
6.71551e-07
5.28091e-09
6.82395e-07
1.55048e-08
6.95603e-07
2.36872e-08
7.10833e-07
2.98436e-08
7.27645e-07
3.42192e-08
7.45613e-07
3.72159e-08
7.64385e-07
3.92681e-08
7.83708e-07
4.07449e-08
8.03417e-07
4.19107e-08
8.2342e-07
4.2923e-08
8.43672e-07
4.38635e-08
4.47667e-08
8.64151e-07
5.49013e-07
6.49831e-09
5.56313e-07
-3.36404e-08
5.58666e-07
-3.275e-08
5.59791e-07
-2.76391e-08
5.60936e-07
-1.91713e-08
5.63327e-07
-8.86235e-09
5.68187e-07
4.20647e-10
5.76013e-07
7.6794e-09
5.86532e-07
1.31681e-08
5.99205e-07
1.71702e-08
6.13473e-07
1.99508e-08
6.28857e-07
2.18319e-08
6.44996e-07
2.31299e-08
6.61644e-07
2.40966e-08
6.78656e-07
2.48984e-08
6.95957e-07
2.56224e-08
7.13517e-07
2.63029e-08
2.69608e-08
7.31323e-07
4.84504e-07
4.75511e-09
4.83663e-07
-3.27991e-08
4.77542e-07
-2.66291e-08
4.70445e-07
-2.05428e-08
4.65107e-07
-1.38331e-08
4.62665e-07
-6.42062e-09
4.63996e-07
-9.09883e-10
4.69151e-07
2.52471e-09
4.77256e-07
5.06249e-09
4.87524e-07
6.90286e-09
4.99298e-07
8.17595e-09
5.12089e-07
9.04126e-09
5.25559e-07
9.66004e-09
5.39501e-07
1.01541e-08
5.53805e-07
1.05949e-08
5.68415e-07
1.1012e-08
5.83318e-07
1.13999e-08
1.1764e-08
5.98515e-07
4.25023e-07
3.92224e-07
3.65595e-07
3.45052e-07
3.31219e-07
3.24798e-07
3.23888e-07
3.26413e-07
3.31475e-07
3.38378e-07
3.46554e-07
3.55595e-07
3.65255e-07
3.7541e-07
3.86005e-07
3.97017e-07
4.08416e-07
4.2018e-07
1.65126e-07
-1.65126e-07
4.05176e-07
-2.4005e-07
6.40371e-07
-2.35195e-07
8.42285e-07
-2.01914e-07
1.00006e-06
-1.57772e-07
1.10922e-06
-1.09165e-07
1.16794e-06
-5.87218e-08
1.1784e-06
-1.04519e-08
1.13402e-06
4.43772e-08
1.04685e-06
8.71702e-08
9.32108e-07
1.1474e-07
8.07041e-07
1.25067e-07
6.85953e-07
1.21089e-07
5.77003e-07
1.08949e-07
4.80988e-07
9.60156e-08
3.92601e-07
8.83871e-08
3.03616e-07
8.89849e-08
2.05387e-07
9.82288e-08
9.09625e-08
1.14424e-07
-4.35192e-08
1.34482e-07
-1.99417e-07
1.55898e-07
-3.7622e-07
1.76803e-07
-5.72148e-07
1.95928e-07
-7.84879e-07
2.1273e-07
-1.01167e-06
2.26789e-07
-1.24953e-06
2.37857e-07
-1.49538e-06
2.45853e-07
-1.74621e-06
2.50834e-07
-1.99918e-06
2.52966e-07
-2.25167e-06
2.52489e-07
-2.50135e-06
2.49682e-07
-2.74619e-06
2.44837e-07
-2.98442e-06
2.38235e-07
-3.21456e-06
2.30135e-07
-3.43531e-06
2.20755e-07
-3.64559e-06
2.10278e-07
-3.84443e-06
1.9884e-07
-4.03097e-06
1.86543e-07
-4.20443e-06
1.73455e-07
-4.36404e-06
1.59617e-07
-4.50909e-06
1.45045e-07
-4.63883e-06
1.2974e-07
-4.75253e-06
1.13698e-07
-4.84944e-06
9.69125e-08
-4.92882e-06
7.93762e-08
-4.9899e-06
6.10872e-08
-5.03202e-06
4.21157e-08
-5.05467e-06
2.26472e-08
-5.05743e-06
2.76745e-09
-5.0428e-06
-1.46379e-08
-5.01161e-06
-3.1185e-08
-4.96442e-06
-4.71906e-08
-4.90147e-06
-6.29508e-08
-4.82289e-06
-7.85827e-08
-4.7288e-06
-9.40879e-08
-4.61939e-06
-1.09407e-07
-4.49494e-06
-1.24447e-07
-4.35585e-06
-1.39096e-07
-4.20262e-06
-1.53228e-07
-4.03591e-06
-1.6671e-07
-3.85651e-06
-1.79405e-07
-3.66533e-06
-1.91172e-07
-3.46346e-06
-2.01872e-07
-3.25209e-06
-2.1137e-07
-3.03255e-06
-2.19537e-07
-2.8063e-06
-2.26252e-07
-2.5749e-06
-2.31407e-07
-2.33999e-06
-2.34909e-07
-2.10331e-06
-2.36681e-07
-1.86664e-06
-2.36667e-07
-1.63181e-06
-2.34834e-07
-1.40063e-06
-2.31175e-07
-1.17492e-06
-2.25708e-07
-9.5644e-07
-2.18482e-07
-7.46865e-07
-2.09576e-07
-5.47771e-07
-1.99094e-07
-3.60605e-07
-1.87166e-07
-1.86668e-07
-1.73937e-07
-2.71466e-08
-1.59522e-07
1.17159e-07
-1.44306e-07
2.4602e-07
-1.28861e-07
3.59147e-07
-1.13128e-07
4.56243e-07
-9.70961e-08
5.37436e-07
-8.11928e-08
6.03239e-07
-6.58026e-08
6.54465e-07
-5.1226e-08
6.92189e-07
-3.77237e-08
7.17697e-07
-2.55088e-08
7.3248e-07
-1.47831e-08
7.37383e-07
-4.90225e-09
7.32548e-07
4.8348e-09
7.18706e-07
1.38416e-08
6.99983e-07
1.87233e-08
6.76819e-07
2.31642e-08
6.48059e-07
2.87601e-08
6.21375e-07
2.6684e-08
5.94626e-07
2.67486e-08
5.62492e-07
3.21341e-08
5.29957e-07
3.25351e-08
4.9855e-07
3.14066e-08
4.66565e-07
3.1985e-08
4.33906e-07
3.26599e-08
4.01148e-07
3.27575e-08
3.68797e-07
3.23515e-08
3.37239e-07
3.15571e-08
3.06747e-07
3.04928e-08
2.77507e-07
2.92396e-08
2.49661e-07
2.78464e-08
2.2331e-07
2.6351e-08
1.98514e-07
2.47959e-08
1.75285e-07
2.3229e-08
1.53595e-07
2.16895e-08
1.33404e-07
2.01917e-08
1.14678e-07
1.87253e-08
9.73997e-08
1.72787e-08
8.155e-08
1.58497e-08
6.71061e-08
1.44439e-08
5.40375e-08
1.30685e-08
4.23104e-08
1.17271e-08
3.18865e-08
1.04239e-08
2.27104e-08
9.17606e-09
1.46901e-08
8.0203e-09
7.69112e-09
6.99899e-09
1.57097e-09
6.12015e-09
-3.77807e-09
5.34903e-09
-8.42411e-09
4.64604e-09
-1.24041e-08
3.98004e-09
-1.57459e-08
3.34177e-09
-1.84789e-08
2.73303e-09
-2.06336e-08
2.15465e-09
-2.22365e-08
1.60288e-09
-2.33138e-08
1.07736e-09
-2.39017e-08
5.87874e-10
-2.40554e-08
1.53714e-10
-2.39162e-08
-1.39213e-10
-2.35979e-08
-3.18269e-10
-2.31707e-08
-4.27239e-10
-2.26498e-08
-5.20933e-10
-2.20207e-08
-6.29024e-10
-2.12661e-08
-7.54634e-10
-2.03734e-08
-8.92686e-10
-1.93308e-08
-1.04262e-09
-1.81225e-08
-1.20831e-09
-1.67401e-08
-1.38239e-09
-1.5211e-08
-1.52913e-09
-1.36167e-08
-1.59426e-09
-1.20648e-08
-1.55193e-09
-1.06228e-08
-1.44195e-09
-9.28706e-09
-1.33575e-09
-8.01305e-09
-1.27402e-09
-6.75541e-09
-1.25763e-09
-5.48274e-09
-1.27267e-09
-4.17181e-09
-1.31093e-09
-2.79531e-09
-1.3765e-09
-1.32392e-09
-1.47139e-09
2.43481e-10
-1.5674e-09
1.84089e-09
-1.59741e-09
3.34498e-09
-1.50409e-09
4.65839e-09
-1.31341e-09
5.77462e-09
-1.11623e-09
6.74708e-09
-9.72458e-10
7.62972e-09
-8.82639e-10
8.45188e-09
-8.22163e-10
9.22402e-09
-7.72139e-10
9.95674e-09
-7.32721e-10
1.06694e-08
-7.12687e-10
1.13629e-08
-6.93479e-10
1.19634e-08
-6.00458e-10
1.23082e-08
-3.4484e-10
1.22316e-08
7.66231e-11
1.16408e-08
5.90831e-10
1.05041e-08
1.1367e-09
8.79483e-09
1.70922e-09
6.43498e-09
2.35985e-09
3.29882e-09
3.13616e-09
-6.03238e-10
3.90206e-09
-4.6593e-09
4.05606e-09
-7.56776e-09
2.90846e-09
-7.13739e-09
-4.30375e-10
-2.90016e-09
-4.23723e-09
2.29305e-07
-3.94431e-07
4.18013e-07
-4.28758e-07
5.54118e-07
-3.71301e-07
6.49025e-07
-2.96821e-07
7.09222e-07
-2.17969e-07
7.38639e-07
-1.38582e-07
7.40312e-07
-6.03951e-08
7.14174e-07
1.56867e-08
6.70205e-07
8.83458e-08
6.03678e-07
1.53697e-07
5.13258e-07
2.0516e-07
4.00405e-07
2.3792e-07
2.68295e-07
2.53199e-07
1.18678e-07
2.58566e-07
-4.89966e-08
2.6369e-07
-2.36115e-07
2.75505e-07
-4.43485e-07
2.96356e-07
-6.70002e-07
3.24745e-07
-9.12782e-07
3.57205e-07
-1.16827e-06
3.89968e-07
-1.43255e-06
4.20183e-07
-1.70187e-06
4.46123e-07
-1.97269e-06
4.66741e-07
-2.24147e-06
4.81511e-07
-2.50501e-06
4.9033e-07
-2.76058e-06
4.93428e-07
-3.00599e-06
4.91268e-07
-3.23961e-06
4.84454e-07
-3.46031e-06
4.73661e-07
-3.66739e-06
4.59568e-07
-3.86052e-06
4.42813e-07
-4.03965e-06
4.23962e-07
-4.2049e-06
4.03495e-07
-4.35656e-06
3.81794e-07
-4.49496e-06
3.59152e-07
-4.62046e-06
3.35779e-07
-4.73343e-06
3.11812e-07
-4.83422e-06
2.87334e-07
-4.92315e-06
2.62384e-07
-5.00051e-06
2.3697e-07
-5.06655e-06
2.11085e-07
-5.12152e-06
1.84713e-07
-5.16566e-06
1.57842e-07
-5.19922e-06
1.30471e-07
-5.22247e-06
1.0262e-07
-5.23572e-06
7.4345e-08
-5.23936e-06
4.57481e-08
-5.23367e-06
1.69569e-08
-5.21885e-06
-1.20455e-08
-5.19217e-06
-4.13207e-08
-5.15214e-06
-7.12197e-08
-5.09784e-06
-1.0149e-07
-5.02882e-06
-1.31962e-07
-4.94492e-06
-1.62487e-07
-4.84611e-06
-1.92901e-07
-4.7325e-06
-2.23012e-07
-4.60434e-06
-2.52605e-07
-4.462e-06
-2.81444e-07
-4.30595e-06
-3.09278e-07
-4.13681e-06
-3.35842e-07
-3.95535e-06
-3.60865e-07
-3.76245e-06
-3.84074e-07
-3.55913e-06
-4.05198e-07
-3.34652e-06
-4.23973e-07
-3.12591e-06
-4.40148e-07
-2.89867e-06
-4.53491e-07
-2.66629e-06
-4.6379e-07
-2.43033e-06
-4.70865e-07
-2.19245e-06
-4.74566e-07
-1.95433e-06
-4.74786e-07
-1.71771e-06
-4.71456e-07
-1.48432e-06
-4.64561e-07
-1.25589e-06
-4.54135e-07
-1.03411e-06
-4.40269e-07
-8.20573e-07
-4.2311e-07
-6.16802e-07
-4.02864e-07
-4.24176e-07
-3.79792e-07
-2.43908e-07
-3.54204e-07
-7.69682e-08
-3.26462e-07
7.57664e-08
-2.9704e-07
2.134e-07
-2.66494e-07
3.35537e-07
-2.35265e-07
4.42198e-07
-2.03757e-07
5.33538e-07
-1.72532e-07
6.0988e-07
-1.42145e-07
6.71756e-07
-1.13102e-07
7.19877e-07
-8.58447e-08
7.55089e-07
-6.07208e-08
7.78214e-07
-3.7908e-08
7.90514e-07
-1.72023e-08
7.94012e-07
1.33607e-09
7.9004e-07
1.78136e-08
7.77848e-07
3.09155e-08
7.59327e-07
4.16855e-08
7.37773e-07
5.03142e-08
7.09965e-07
5.44913e-08
6.78283e-07
5.84314e-08
6.47425e-07
6.29918e-08
6.15225e-07
6.4735e-08
5.81802e-07
6.48298e-08
5.485e-07
6.52865e-08
5.15496e-07
6.56643e-08
4.82834e-07
6.54197e-08
4.50713e-07
6.44726e-08
4.19361e-07
6.29083e-08
3.89002e-07
6.08518e-08
3.59825e-07
5.84172e-08
3.31977e-07
5.5694e-08
3.0557e-07
5.27582e-08
2.80679e-07
4.96871e-08
2.57346e-07
4.65617e-08
2.35585e-07
4.34501e-08
2.15388e-07
4.03892e-08
1.96729e-07
3.73846e-08
1.79577e-07
3.44306e-08
1.63899e-07
3.15277e-08
1.49656e-07
2.86867e-08
1.36802e-07
2.59222e-08
1.25282e-07
2.32476e-08
1.15028e-07
2.06782e-08
1.05961e-07
1.82426e-08
9.7993e-08
1.59882e-08
9.10298e-08
1.39623e-08
8.49746e-08
1.21753e-08
7.97346e-08
1.05891e-08
7.52353e-08
9.14527e-09
7.14186e-08
7.79682e-09
6.82375e-08
6.5228e-09
6.56501e-08
5.32048e-09
6.36137e-08
4.19106e-09
6.20838e-08
3.13269e-09
6.10146e-08
2.1466e-09
6.03527e-08
1.24978e-09
6.00261e-08
4.80291e-10
5.99935e-08
-1.06575e-10
6.01895e-08
-5.14326e-10
6.05605e-08
-7.98204e-10
6.10722e-08
-1.03264e-09
6.17111e-08
-1.26792e-09
6.24761e-08
-1.51959e-09
6.33681e-08
-1.78472e-09
6.43849e-08
-2.05944e-09
6.55193e-08
-2.34271e-09
6.67576e-08
-2.62066e-09
6.80759e-08
-2.84737e-09
6.94382e-08
-2.95663e-09
7.08031e-08
-2.9168e-09
7.21363e-08
-2.77512e-09
7.34238e-08
-2.62332e-09
7.46755e-08
-2.52572e-09
7.5914e-08
-2.4961e-09
7.71608e-08
-2.51944e-09
7.843e-08
-2.58015e-09
7.97288e-08
-2.67528e-09
8.10572e-08
-2.79979e-09
8.24027e-08
-2.91288e-09
8.37336e-08
-2.92836e-09
8.50047e-08
-2.77519e-09
8.61755e-08
-2.48419e-09
8.72286e-08
-2.16935e-09
8.81752e-08
-1.91909e-09
8.90411e-08
-1.7485e-09
8.98468e-08
-1.62785e-09
9.05994e-08
-1.52473e-09
9.12954e-08
-1.42879e-09
9.19238e-08
-1.34106e-09
9.24587e-08
-1.2284e-09
9.2845e-08
-9.86703e-10
9.29949e-08
-4.94768e-10
9.28122e-08
2.59276e-10
9.22219e-08
1.18121e-09
9.11798e-08
2.17881e-09
8.96537e-08
3.23522e-09
8.76153e-08
4.39827e-09
8.50734e-08
5.67812e-09
8.21788e-08
6.79662e-09
7.93838e-08
6.85111e-09
7.75266e-08
4.7656e-09
7.71093e-08
-1.3099e-11
-4.47761e-09
7.86868e-08
1.47224e-07
-5.41655e-07
2.26719e-07
-5.08253e-07
2.6528e-07
-4.09861e-07
2.76831e-07
-3.08372e-07
2.67295e-07
-2.08433e-07
2.3912e-07
-1.10407e-07
1.93526e-07
-1.48011e-08
1.31643e-07
7.75701e-08
5.49451e-08
1.65044e-07
-3.55192e-08
2.44161e-07
-1.40837e-07
3.10478e-07
-2.64707e-07
3.6179e-07
-4.12186e-07
4.00678e-07
-5.86839e-07
4.33219e-07
-7.88569e-07
4.6542e-07
-1.0135e-06
5.00433e-07
-1.25518e-06
5.38035e-07
-1.50629e-06
5.7586e-07
-1.76008e-06
6.10992e-07
-2.01114e-06
6.41031e-07
-2.25546e-06
6.64501e-07
-2.49009e-06
6.8075e-07
-2.71307e-06
6.89722e-07
-2.92333e-06
6.91771e-07
-3.12053e-06
6.87536e-07
-3.30492e-06
6.77819e-07
-3.47715e-06
6.63491e-07
-3.6381e-06
6.45403e-07
-3.78877e-06
6.24337e-07
-3.93017e-06
6.0097e-07
-4.06322e-06
5.75857e-07
-4.18868e-06
5.49429e-07
-4.30719e-06
5.22001e-07
-4.41918e-06
4.93785e-07
-4.52493e-06
4.64904e-07
-4.62457e-06
4.35411e-07
-4.71806e-06
4.05307e-07
-4.80528e-06
3.7455e-07
-4.88597e-06
3.43077e-07
-4.95981e-06
3.1081e-07
-5.02639e-06
2.77666e-07
-5.08525e-06
2.43571e-07
-5.13586e-06
2.08458e-07
-5.17767e-06
1.72278e-07
-5.21005e-06
1.35001e-07
-5.23233e-06
9.6618e-08
-5.24372e-06
5.71377e-08
-5.24332e-06
1.65658e-08
-5.23028e-06
-2.50916e-08
-5.20375e-06
-6.7854e-08
-5.16338e-06
-1.11588e-07
-5.10881e-06
-1.56055e-07
-5.03977e-06
-2.01005e-07
-4.95609e-06
-2.46171e-07
-4.85772e-06
-2.91267e-07
-4.74475e-06
-3.3598e-07
-4.61738e-06
-3.79971e-07
-4.47595e-06
-4.22877e-07
-4.32091e-06
-4.64316e-07
-4.15286e-06
-5.03893e-07
-3.97253e-06
-5.41201e-07
-3.78077e-06
-5.75834e-07
-3.57857e-06
-6.07389e-07
-3.36707e-06
-6.35474e-07
-3.1475e-06
-6.59718e-07
-2.92122e-06
-6.79774e-07
-2.68968e-06
-6.95331e-07
-2.45442e-06
-7.0612e-07
-2.21707e-06
-7.11921e-07
-1.97929e-06
-7.12569e-07
-1.74277e-06
-7.07967e-07
-1.50925e-06
-6.98086e-07
-1.28041e-06
-6.82974e-07
-1.05792e-06
-6.62763e-07
-8.43356e-07
-6.3767e-07
-6.38221e-07
-6.07999e-07
-4.43871e-07
-5.74143e-07
-2.61501e-07
-5.36575e-07
-9.21111e-08
-4.95851e-07
6.34614e-08
-4.52613e-07
2.04491e-07
-4.07524e-07
3.30553e-07
-3.61327e-07
4.41549e-07
-3.14753e-07
5.37565e-07
-2.68548e-07
6.18869e-07
-2.2345e-07
6.85909e-07
-1.80142e-07
7.39291e-07
-1.39226e-07
7.79753e-07
-1.01184e-07
8.08173e-07
-6.6328e-08
8.25742e-07
-3.47705e-08
8.3369e-07
-6.6122e-09
8.33468e-07
1.80356e-08
8.25553e-07
3.88309e-08
8.11216e-07
5.60221e-08
7.91916e-07
6.96138e-08
7.67001e-07
7.94062e-08
7.38528e-07
8.69048e-08
7.08843e-07
9.26771e-08
6.77663e-07
9.59145e-08
6.4529e-07
9.72033e-08
6.12865e-07
9.7711e-08
5.80927e-07
9.76021e-08
5.49648e-07
9.66991e-08
5.19163e-07
9.49579e-08
4.89616e-07
9.24551e-08
4.61152e-07
8.93154e-08
4.339e-07
8.56699e-08
4.07957e-07
8.16363e-08
3.83396e-07
7.73198e-08
3.60261e-07
7.28213e-08
3.38584e-07
6.82392e-08
3.18377e-07
6.3657e-08
2.99637e-07
5.91292e-08
2.82343e-07
5.46791e-08
2.66459e-07
5.03137e-08
2.51946e-07
4.60408e-08
2.38757e-07
4.18758e-08
2.2684e-07
3.78397e-08
2.16132e-07
3.39549e-08
2.06564e-07
3.02462e-08
1.9806e-07
2.67473e-08
1.90545e-07
2.35033e-08
1.83951e-07
2.05556e-08
1.78213e-07
1.79136e-08
1.73259e-07
1.55432e-08
1.69018e-07
1.33861e-08
1.65426e-07
1.13892e-08
1.62426e-07
9.52233e-09
1.59971e-07
7.77606e-09
1.58012e-07
6.14994e-09
1.565e-07
4.64455e-09
1.55383e-07
3.26378e-09
1.54608e-07
2.02427e-09
1.54129e-07
9.59305e-10
1.53916e-07
1.06524e-10
1.53936e-07
-5.34466e-10
1.54153e-07
-1.01494e-09
1.54531e-07
-1.41015e-09
1.55042e-07
-1.77966e-09
1.55673e-07
-2.15016e-09
1.56412e-07
-2.52406e-09
1.57248e-07
-2.89559e-09
1.58163e-07
-3.25767e-09
1.59135e-07
-3.59239e-09
1.60144e-07
-3.85672e-09
1.6118e-07
-3.9922e-09
1.62234e-07
-3.97089e-09
1.63294e-07
-3.83555e-09
1.64347e-07
-3.67555e-09
1.65384e-07
-3.5635e-09
1.66413e-07
-3.52462e-09
1.67442e-07
-3.54851e-09
1.68477e-07
-3.61547e-09
1.69515e-07
-3.71292e-09
1.70542e-07
-3.82662e-09
1.71542e-07
-3.91328e-09
1.72506e-07
-3.89228e-09
1.73429e-07
-3.69796e-09
1.74302e-07
-3.35711e-09
1.75111e-07
-2.97874e-09
1.75851e-07
-2.65873e-09
1.76527e-07
-2.42451e-09
1.77149e-07
-2.2501e-09
1.77721e-07
-2.09617e-09
1.78231e-07
-1.93922e-09
1.78656e-07
-1.76636e-09
1.78963e-07
-1.53532e-09
1.79117e-07
-1.14054e-09
1.79083e-07
-4.6106e-10
1.7882e-07
5.22472e-10
1.78285e-07
1.71673e-09
1.77444e-07
3.01903e-09
1.76287e-07
4.39308e-09
1.74831e-07
5.85433e-09
1.73154e-07
7.35489e-09
1.71411e-07
8.53954e-09
1.69797e-07
8.46539e-09
1.68554e-07
6.00854e-09
1.67551e-07
9.89908e-10
-4.54127e-09
1.67614e-07
3.62729e-08
-5.77928e-07
1.45614e-08
-4.86542e-07
-2.45912e-08
-3.70708e-07
-7.50481e-08
-2.57915e-07
-1.36174e-07
-1.47308e-07
-2.08323e-07
-3.82576e-08
-2.91874e-07
6.87498e-08
-3.86756e-07
1.72452e-07
-4.92321e-07
2.70608e-07
-6.0855e-07
3.60391e-07
-7.37499e-07
4.39427e-07
-8.83089e-07
5.0738e-07
-1.04875e-06
5.6634e-07
-1.23491e-06
6.19375e-07
-1.43813e-06
6.68648e-07
-1.65223e-06
7.14529e-07
-1.87011e-06
7.55918e-07
-2.08544e-06
7.91191e-07
-2.29348e-06
8.19027e-07
-2.49124e-06
8.38791e-07
-2.67725e-06
8.50516e-07
-2.85121e-06
8.54707e-07
-3.01364e-06
8.52152e-07
-3.16563e-06
8.43764e-07
-3.30858e-06
8.30481e-07
-3.44395e-06
8.13189e-07
-3.57313e-06
7.92678e-07
-3.69735e-06
7.69617e-07
-3.81756e-06
7.44545e-07
-3.93446e-06
7.17874e-07
-4.0485e-06
6.899e-07
-4.15989e-06
6.60816e-07
-4.26862e-06
6.30728e-07
-4.3745e-06
5.99671e-07
-4.47722e-06
5.67623e-07
-4.57633e-06
5.34519e-07
-4.67129e-06
5.00266e-07
-4.76149e-06
4.6475e-07
-4.84626e-06
4.27849e-07
-4.92489e-06
3.8944e-07
-4.99663e-06
3.49407e-07
-5.06071e-06
3.07648e-07
-5.11633e-06
2.6408e-07
-5.1627e-06
2.18645e-07
-5.19901e-06
1.71311e-07
-5.22447e-06
1.22077e-07
-5.2383e-06
7.09726e-08
-5.23978e-06
1.80482e-08
-5.22827e-06
-3.66062e-08
-5.20326e-06
-9.2859e-08
-5.16437e-06
-1.50485e-07
-5.11123e-06
-2.09192e-07
-5.04358e-06
-2.68652e-07
-4.96125e-06
-3.28502e-07
-4.86417e-06
-3.88347e-07
-4.7524e-06
-4.47756e-07
-4.6261e-06
-5.06265e-07
-4.4856e-06
-5.63383e-07
-4.33132e-06
-6.18595e-07
-4.16384e-06
-6.71368e-07
-3.98388e-06
-7.21159e-07
-3.79229e-06
-7.67425e-07
-3.59006e-06
-8.09625e-07
-3.37829e-06
-8.47239e-07
-3.15824e-06
-8.7977e-07
-2.93126e-06
-9.06757e-07
-2.69881e-06
-9.27784e-07
-2.46243e-06
-9.42491e-07
-2.22377e-06
-9.50584e-07
-1.9845e-06
-9.51843e-07
-1.74633e-06
-9.46133e-07
-1.51101e-06
-9.33411e-07
-1.28025e-06
-9.13736e-07
-1.05573e-06
-8.87277e-07
-8.39082e-07
-8.54319e-07
-6.31815e-07
-8.15266e-07
-4.35316e-07
-7.70641e-07
-2.50808e-07
-7.21082e-07
-7.93239e-08
-6.67336e-07
7.82972e-08
-6.10234e-07
2.21434e-07
-5.50662e-07
3.49695e-07
-4.89587e-07
4.62937e-07
-4.27995e-07
5.61243e-07
-3.66854e-07
6.44894e-07
-3.07101e-07
7.1435e-07
-2.49598e-07
7.70228e-07
-1.95103e-07
8.13283e-07
-1.44239e-07
8.44413e-07
-9.74582e-08
8.64687e-07
-5.50443e-08
8.75253e-07
-1.71787e-08
8.7729e-07
1.59992e-08
8.71743e-07
4.43777e-08
8.59711e-07
6.80538e-08
8.42182e-07
8.71431e-08
8.19757e-07
1.01831e-07
7.93775e-07
1.12888e-07
7.65591e-07
1.20861e-07
7.35716e-07
1.25789e-07
7.04695e-07
1.28225e-07
6.73423e-07
1.28982e-07
6.42541e-07
1.28484e-07
6.12392e-07
1.26849e-07
5.8318e-07
1.24169e-07
5.55055e-07
1.2058e-07
5.28135e-07
1.16236e-07
5.02509e-07
1.11296e-07
4.78238e-07
1.05907e-07
4.55358e-07
1.002e-07
4.33883e-07
9.42957e-08
4.13819e-07
8.83031e-08
3.95162e-07
8.23148e-08
3.77894e-07
7.63963e-08
3.61989e-07
7.05849e-08
3.47403e-07
6.48997e-08
3.34088e-07
5.9356e-08
3.2199e-07
5.39734e-08
3.11053e-07
4.87768e-08
3.01213e-07
4.37943e-08
2.92404e-07
3.9056e-08
2.84554e-07
3.4597e-08
2.77601e-07
3.04565e-08
2.71489e-07
2.66675e-08
2.66166e-07
2.32367e-08
2.61573e-07
2.01357e-08
2.57647e-07
1.7312e-08
2.54323e-07
1.47133e-08
2.51541e-07
1.23038e-08
2.4925e-07
1.00675e-08
2.474e-07
8.00039e-09
2.45941e-07
6.10323e-09
2.44824e-07
4.38065e-09
2.44002e-07
2.84577e-09
2.4344e-07
1.52205e-09
2.43113e-07