/*--------------------------------*- C++ -*----------------------------------*\
  =========                 |
  \\      /  F ield         | OpenFOAM: The Open Source CFD Toolbox
   \\    /   O peration     | Website:  https://openfoam.org
    \\  /    A nd           | Version:  9
     \\/     M anipulation  |
\*---------------------------------------------------------------------------*/
FoamFile
{
    format      ascii;
    class       volVectorField;
    location    "0.03";
    object      U;
}
// * * * * * * * * * * * * * * * * * * * * * * * * * * * * * * * * * * * * * //

dimensions      [0 1 -1 0 0 0 0];

internalField   nonuniform List<vector> 
12225
(
(0.939452 -0.288798 0)
(0.900777 -0.0715767 0)
(0.795372 0.0026922 0)
(0.686788 0.0133826 0)
(0.607162 0.0113198 0)
(0.54643 0.00885644 0)
(0.493829 0.00752596 0)
(0.446256 0.00679739 0)
(0.402967 0.00630369 0)
(0.363068 0.00600456 0)
(0.325464 0.00594944 0)
(0.288975 0.00612592 0)
(0.252887 0.00636647 0)
(0.216885 0.0063125 0)
(0.185384 0.00471443 0)
(0.164868 -0.000907633 0)
(0.194039 -0.0280523 0)
(0.205623 0.081456 0)
(1.02192 0.0854371 0)
(0.999454 0.0698883 0)
(0.962488 0.0370195 0)
(0.912308 0.028294 0)
(0.85956 0.0253396 0)
(0.806764 0.023084 0)
(0.753035 0.0217052 0)
(0.698868 0.0209209 0)
(0.64525 0.0203646 0)
(0.592868 0.0200141 0)
(0.54198 0.0200295 0)
(0.49224 0.0205048 0)
(0.44305 0.0212645 0)
(0.393594 0.0215069 0)
(0.346385 0.0186601 0)
(0.304328 0.00534181 0)
(0.282532 -0.0375272 0)
(0.216619 0.0901284 0)
(0.998424 0.0182181 0)
(0.997564 0.0340699 0)
(0.992635 0.0357005 0)
(0.969639 0.0361424 0)
(0.935912 0.0357265 0)
(0.895534 0.0352258 0)
(0.849462 0.0354102 0)
(0.799222 0.0359223 0)
(0.746548 0.0363021 0)
(0.69297 0.0365477 0)
(0.639624 0.0369774 0)
(0.586922 0.0379027 0)
(0.534673 0.0392974 0)
(0.482077 0.0401872 0)
(0.430129 0.0373003 0)
(0.37832 0.022031 0)
(0.328994 -0.0169111 0)
(0.219316 0.135286 0)
(0.998084 0.0055173 0)
(1.00014 0.0291646 0)
(1.00275 0.0380847 0)
(0.990827 0.0418365 0)
(0.968258 0.0442435 0)
(0.937468 0.046405 0)
(0.899061 0.0489297 0)
(0.854474 0.0514263 0)
(0.805508 0.0533604 0)
(0.753964 0.0547098 0)
(0.701407 0.0559176 0)
(0.648746 0.0575279 0)
(0.596171 0.0597343 0)
(0.543056 0.061576 0)
(0.489479 0.0595839 0)
(0.432913 0.0455626 0)
(0.371333 0.0170879 0)
(0.245836 0.173166 0)
(0.999198 0.0064032 0)
(1.0017 0.0293013 0)
(1.00585 0.0397267 0)
(0.999398 0.04583 0)
(0.983739 0.0511022 0)
(0.959891 0.0562192 0)
(0.927987 0.061535 0)
(0.889095 0.0665456 0)
(0.844767 0.0705847 0)
(0.796723 0.0735474 0)
(0.746622 0.0759451 0)
(0.695621 0.0785373 0)
(0.644185 0.0817801 0)
(0.591892 0.0848999 0)
(0.538289 0.0847086 0)
(0.479874 0.0746131 0)
(0.41352 0.0589654 0)
(0.288268 0.202413 0)
(0.999541 0.00767914 0)
(1.00192 0.028575 0)
(1.00613 0.0401914 0)
(1.00258 0.0486182 0)
(0.991261 0.0566401 0)
(0.972373 0.0647404 0)
(0.945739 0.0730412 0)
(0.912061 0.0808686 0)
(0.872549 0.0873886 0)
(0.828677 0.0923699 0)
(0.781984 0.0963352 0)
(0.733681 0.100217 0)
(0.684395 0.104737 0)
(0.633892 0.109435 0)
(0.581464 0.111744 0)
(0.523379 0.107139 0)
(0.456803 0.103955 0)
(0.341776 0.229557 0)
(0.999574 0.00785348 0)
(1.00163 0.027278 0)
(1.00533 0.0401371 0)
(1.00325 0.0506905 0)
(0.99465 0.0612543 0)
(0.979309 0.0722392 0)
(0.956887 0.0835432 0)
(0.9278 0.0943043 0)
(0.892939 0.103517 0)
(0.853478 0.110803 0)
(0.810728 0.116654 0)
(0.765821 0.122119 0)
(0.719449 0.128165 0)
(0.671534 0.134709 0)
(0.621314 0.139972 0)
(0.565388 0.141426 0)
(0.501737 0.149153 0)
(0.402189 0.257454 0)
(0.99961 0.00773354 0)
(1.00122 0.0260917 0)
(1.00416 0.0399714 0)
(1.00272 0.0523676 0)
(0.995825 0.0652517 0)
(0.983051 0.0789591 0)
(0.964 0.0931732 0)
(0.938896 0.106853 0)
(0.908374 0.118834 0)
(0.873319 0.128598 0)
(0.834778 0.136571 0)
(0.793734 0.143873 0)
(0.750866 0.151668 0)
(0.706224 0.160269 0)
(0.659126 0.168706 0)
(0.606843 0.176087 0)
(0.548244 0.192589 0)
(0.465415 0.285922 0)
(0.999684 0.00766659 0)
(1.00082 0.0251887 0)
(1.00293 0.0398509 0)
(1.00167 0.053845 0)
(0.99586 0.0688404 0)
(0.984989 0.0850761 0)
(0.968673 0.102039 0)
(0.947025 0.118528 0)
(0.920488 0.133248 0)
(0.889703 0.145554 0)
(0.855465 0.155795 0)
(0.818576 0.165114 0)
(0.779662 0.174829 0)
(0.738866 0.185613 0)
(0.695676 0.197226 0)
(0.64814 0.209954 0)
(0.595892 0.233026 0)
(0.528581 0.314021 0)
(0.999764 0.00766226 0)
(1.00048 0.0245511 0)
(1.00181 0.0398442 0)
(1.0005 0.0552442 0)
(0.995412 0.0721555 0)
(0.986014 0.0907091 0)
(0.971975 0.110217 0)
(0.953357 0.129342 0)
(0.930467 0.146684 0)
(0.903755 0.161498 0)
(0.8738 0.174055 0)
(0.841228 0.185487 0)
(0.80659 0.197211 0)
(0.7701 0.210203 0)
(0.731446 0.22481 0)
(0.689399 0.242061 0)
(0.644178 0.269756 0)
(0.590355 0.340812 0)
(0.999831 0.0076826 0)
(1.00022 0.0241417 0)
(1.00089 0.03998 0)
(0.999472 0.0566296 0)
(0.994914 0.075272 0)
(0.986732 0.0959252 0)
(0.974665 0.117747 0)
(0.958753 0.139285 0)
(0.939217 0.159066 0)
(0.916368 0.17627 0)
(0.890608 0.191095 0)
(0.862416 0.204638 0)
(0.832261 0.218366 0)
(0.80041 0.233479 0)
(0.766753 0.250752 0)
(0.730642 0.271608 0)
(0.692685 0.302336 0)
(0.650384 0.365464 0)
(0.999881 0.00771941 0)
(1.00006 0.0239487 0)
(1.00029 0.040239 0)
(0.998809 0.0579136 0)
(0.994695 0.0779852 0)
(0.98752 0.100366 0)
(0.977092 0.124087 0)
(0.963456 0.147614 0)
(0.946784 0.169425 0)
(0.927296 0.188654 0)
(0.905277 0.205443 0)
(0.881095 0.220838 0)
(0.855156 0.236314 0)
(0.827759 0.253202 0)
(0.798958 0.272532 0)
(0.768511 0.295857 0)
(0.737262 0.328235 0)
(0.704398 0.38539 0)
(0.99992 0.00775298 0)
(0.999967 0.0238676 0)
(0.99991 0.0405723 0)
(0.998453 0.0591649 0)
(0.994805 0.0805171 0)
(0.988607 0.104434 0)
(0.979729 0.129836 0)
(0.968228 0.155117 0)
(0.954245 0.178726 0)
(0.93794 0.19977 0)
(0.919513 0.218341 0)
(0.899248 0.235426 0)
(0.877496 0.252476 0)
(0.854575 0.270892 0)
(0.830668 0.291847 0)
(0.805836 0.316875 0)
(0.781016 0.34994 0)
(0.756474 0.401852 0)
(0.999954 0.00779545 0)
(0.999953 0.023873 0)
(0.999777 0.041009 0)
(0.998507 0.0605193 0)
(0.9955 0.083148 0)
(0.990471 0.108583 0)
(0.98335 0.135629 0)
(0.97421 0.162617 0)
(0.963172 0.187979 0)
(0.95035 0.210806 0)
(0.935883 0.231145 0)
(0.919983 0.249906 0)
(0.902951 0.268482 0)
(0.885113 0.288289 0)
(0.866746 0.310557 0)
(0.84812 0.336694 0)
(0.830128 0.369585 0)
(0.813531 0.41618 0)
(0.999984 0.00781768 0)
(1.00005 0.023895 0)
(0.999995 0.0414365 0)
(0.999186 0.0618048 0)
(0.997119 0.0856277 0)
(0.993575 0.112466 0)
(0.98853 0.141009 0)
(0.982068 0.169532 0)
(0.974289 0.196463 0)
(0.965278 0.220894 0)
(0.955127 0.242824 0)
(0.943998 0.263075 0)
(0.932147 0.282947 0)
(0.919889 0.303808 0)
(0.907553 0.326865 0)
(0.895505 0.353329 0)
(0.88452 0.385147 0)
(0.875386 0.426416 0)
(1.00002 0.00777054 0)
(1.00028 0.0237778 0)
(1.00066 0.0415929 0)
(1.0007 0.0626402 0)
(1.00001 0.0874429 0)
(0.998418 0.115428 0)
(0.995918 0.145173 0)
(0.992577 0.174906 0)
(0.988471 0.203061 0)
(0.983652 0.228737 0)
(0.97818 0.251888 0)
(0.972177 0.273235 0)
(0.965857 0.293951 0)
(0.95951 0.315306 0)
(0.953469 0.338419 0)
(0.948108 0.364285 0)
(0.944055 0.394122 0)
(0.941867 0.430052 0)
(1.00005 0.00756078 0)
(1.00069 0.0232163 0)
(1.00185 0.0409663 0)
(1.00321 0.062292 0)
(1.00445 0.0876304 0)
(1.00542 0.116282 0)
(1.00608 0.146724 0)
(1.00646 0.177146 0)
(1.00657 0.205991 0)
(1.00642 0.232363 0)
(1.00602 0.256167 0)
(1.00547 0.278005 0)
(1.00492 0.298907 0)
(1.00462 0.320003 0)
(1.00487 0.342296 0)
(1.00599 0.36659 0)
(1.00846 0.393612 0)
(1.01251 0.424277 0)
(1.00011 0.00703009 0)
(1.00129 0.0217027 0)
(1.00358 0.038697 0)
(1.00675 0.0595314 0)
(1.01053 0.0845836 0)
(1.01475 0.113064 0)
(1.01931 0.143384 0)
(1.02412 0.173709 0)
(1.02912 0.202492 0)
(1.03421 0.228824 0)
(1.03937 0.252542 0)
(1.0446 0.274116 0)
(1.05003 0.294407 0)
(1.05582 0.314388 0)
(1.06221 0.334931 0)
(1.06946 0.356697 0)
(1.07787 0.380137 0)
(1.08748 0.405557 0)
(1.00018 0.00593697 0)
(1.00207 0.0184668 0)
(1.00583 0.0334645 0)
(1.01128 0.0524591 0)
(1.01816 0.0758063 0)
(1.02626 0.102701 0)
(1.03538 0.131564 0)
(1.04532 0.160583 0)
(1.05587 0.188225 0)
(1.06683 0.213556 0)
(1.07806 0.23632 0)
(1.08949 0.256839 0)
(1.10113 0.275795 0)
(1.11306 0.293999 0)
(1.1254 0.312207 0)
(1.13829 0.331 0)
(1.15189 0.350744 0)
(1.16607 0.371578 0)
(1.00024 0.00444148 0)
(1.00277 0.0138929 0)
(1.00787 0.0258202 0)
(1.01537 0.0417715 0)
(1.02492 0.062128 0)
(1.03629 0.08615 0)
(1.04923 0.11234 0)
(1.06345 0.138955 0)
(1.07865 0.164487 0)
(1.09456 0.187974 0)
(1.11096 0.209079 0)
(1.12771 0.227998 0)
(1.14472 0.245274 0)
(1.16201 0.261594 0)
(1.17962 0.277629 0)
(1.19759 0.293925 0)
(1.21604 0.310864 0)
(1.23481 0.32864 0)
(1.00027 0.00295917 0)
(1.00325 0.00933995 0)
(1.00936 0.0182137 0)
(1.01831 0.0311453 0)
(1.02968 0.0485119 0)
(1.0432 0.0696296 0)
(1.05861 0.0930778 0)
(1.0756 0.117169 0)
(1.09386 0.140422 0)
(1.1131 0.161864 0)
(1.13306 0.181108 0)
(1.15355 0.198274 0)
(1.17446 0.21381 0)
(1.1957 0.228318 0)
(1.21728 0.242395 0)
(1.23921 0.256548 0)
(1.26155 0.27115 0)
(1.28418 0.28643 0)
(1.00026 0.00151231 0)
(1.00355 0.00475356 0)
(1.01047 0.0105713 0)
(1.0205 0.0205534 0)
(1.03309 0.0350062 0)
(1.048 0.0532748 0)
(1.06499 0.0739923 0)
(1.08379 0.0955061 0)
(1.10411 0.116358 0)
(1.12567 0.135579 0)
(1.14822 0.152766 0)
(1.17153 0.167992 0)
(1.19541 0.181646 0)
(1.21976 0.194263 0)
(1.2445 0.20638 0)
(1.26961 0.218452 0)
(1.29509 0.230821 0)
(1.32086 0.243712 0)
(1.00018 0.000212834 0)
(1.00359 0.00032911 0)
(1.01115 0.0032681 0)
(1.0219 0.0105766 0)
(1.03516 0.022377 0)
(1.05075 0.0380218 0)
(1.06853 0.0561661 0)
(1.08829 0.0751673 0)
(1.10982 0.0935958 0)
(1.13286 0.110515 0)
(1.15717 0.125533 0)
(1.18247 0.138713 0)
(1.20855 0.150412 0)
(1.23521 0.161118 0)
(1.26234 0.171316 0)
(1.28987 0.181415 0)
(1.31775 0.191716 0)
(1.34594 0.202424 0)
(1.00002 -0.000866687 0)
(1.0033 -0.00390073 0)
(1.01141 -0.00349981 0)
(1.02256 0.00157122 0)
(1.03591 0.0110966 0)
(1.0515 0.0244443 0)
(1.0693 0.040254 0)
(1.08922 0.0568727 0)
(1.11119 0.0729196 0)
(1.13499 0.0875257 0)
(1.16035 0.100345 0)
(1.18696 0.111458 0)
(1.21453 0.121209 0)
(1.24282 0.130053 0)
(1.27165 0.138429 0)
(1.3009 0.146696 0)
(1.33051 0.155111 0)
(1.36042 0.163845 0)
(0.999727 -0.00148668 0)
(1.00262 -0.00792724 0)
(1.01133 -0.00964593 0)
(1.02249 -0.00626168 0)
(1.03525 0.0014558 0)
(1.05002 0.0128975 0)
(1.06697 0.026639 0)
(1.08623 0.0410119 0)
(1.1079 0.0547304 0)
(1.1318 0.067041 0)
(1.15762 0.0776785 0)
(1.18495 0.0867601 0)
(1.21344 0.0946308 0)
(1.24276 0.101713 0)
(1.27268 0.108401 0)
(1.30305 0.115 0)
(1.33379 0.121719 0)
(1.36484 0.12869 0)
(0.998993 -0.000716062 0)
(1.00127 -0.0111235 0)
(1.01087 -0.0148342 0)
(1.02148 -0.0126835 0)
(1.0326 -0.00626566 0)
(1.04538 0.00368343 0)
(1.06036 0.015586 0)
(1.07804 0.0277917 0)
(1.09867 0.0391929 0)
(1.12209 0.0492141 0)
(1.14785 0.0577018 0)
(1.17543 0.0648217 0)
(1.20435 0.0709164 0)
(1.2342 0.0763708 0)
(1.26472 0.0815236 0)
(1.29571 0.0866246 0)
(1.32708 0.0918342 0)
(1.35879 0.0972418 0)
(0.996923 0.00195839 0)
(0.998552 -0.0124219 0)
(1.0094 -0.0182639 0)
(1.01834 -0.0172492 0)
(1.02604 -0.0116993 0)
(1.03506 -0.00287944 0)
(1.0466 0.00730073 0)
(1.06164 0.0172944 0)
(1.08057 0.0263102 0)
(1.10302 0.0340182 0)
(1.12833 0.040393 0)
(1.15576 0.0456416 0)
(1.18469 0.0500879 0)
(1.21466 0.0540628 0)
(1.24534 0.057839 0)
(1.27653 0.0616037 0)
(1.30812 0.0654687 0)
(1.34011 0.0694884 0)
(0.994274 -0.00378981 0)
(0.995157 -0.0161226 0)
(1.00509 -0.0204757 0)
(1.00916 -0.019714 0)
(1.01014 -0.0145831 0)
(1.01266 -0.00662875 0)
(1.01888 0.00181357 0)
(1.03026 0.00942984 0)
(1.04694 0.0159557 0)
(1.06807 0.0213439 0)
(1.09258 0.0256817 0)
(1.11947 0.0291873 0)
(1.14801 0.0321371 0)
(1.17764 0.0347888 0)
(1.20802 0.0373387 0)
(1.23898 0.0399078 0)
(1.2704 0.0425594 0)
(1.30233 0.0453191 0)
(1.01182 -0.0716354 0)
(1.005 -0.0637108 0)
(0.995824 -0.0334525 0)
(0.981291 -0.0216034 0)
(0.96744 -0.0149058 0)
(0.959069 -0.00783046 0)
(0.957789 -0.00154615 0)
(0.964722 0.00353087 0)
(0.978776 0.00762252 0)
(0.998143 0.0108703 0)
(1.02123 0.0134087 0)
(1.04685 0.0154233 0)
(1.07416 0.0171192 0)
(1.10261 0.0186702 0)
(1.13189 0.0201944 0)
(1.16185 0.021751 0)
(1.1924 0.0233556 0)
(1.22363 0.0250106 0)
(0.970778 0.23995 0)
(0.974601 0.0723988 0)
(0.915348 0.00607343 0)
(0.845081 -0.0065435 0)
(0.799046 -0.00549064 0)
(0.776622 -0.00194677 0)
(0.769835 0.000559085 0)
(0.772095 0.00223075 0)
(0.781385 0.00346512 0)
(0.795955 0.00441373 0)
(0.814151 0.00514247 0)
(0.834779 0.00571599 0)
(0.857097 0.00620954 0)
(0.880696 0.00668649 0)
(0.905381 0.00718368 0)
(0.931092 0.007714 0)
(0.95774 0.00826055 0)
(0.985343 0.0088549 0)
(0.0892609 -0.158298 -9.76059e-21)
(0.248808 -0.278415 8.12008e-21)
(0.459881 -0.31352 0)
(0.659692 -0.297096 0)
(0.823677 -0.254513 0)
(0.944758 -0.199713 -7.9153e-21)
(1.02089 -0.138861 0)
(1.05707 -0.0736465 0)
(1.04183 -0.00763012 0)
(0.980573 0.0520032 0)
(0.88704 0.097121 8.19298e-21)
(0.776437 0.122696 0)
(0.663405 0.128172 0)
(0.559139 0.116968 0)
(0.468269 0.0954434 0)
(0.388237 0.0717109 9.14402e-21)
(0.311798 0.0544652 0)
(0.230742 0.0506831 0)
(0.137669 0.0619641 0)
(0.027183 0.0822362 0)
(-0.103331 0.104194 0)
(-0.253088 0.126082 0)
(-0.420823 0.14738 0)
(-0.604868 0.16737 1.09936e-20)
(-0.802946 0.185318 -1.09864e-20)
(-1.01248 0.200642 1.10713e-20)
(-1.23073 0.212967 1.12383e-20)
(-1.45498 0.222126 0)
(-1.68259 0.228133 0)
(-1.9111 0.231139 -1.20994e-20)
(-2.13832 0.231386 -1.24609e-20)
(-2.36227 0.229163 0)
(-2.58126 0.224768 0)
(-2.79383 0.218487 -1.36026e-20)
(-2.99873 0.210571 0)
(-3.19489 0.201234 0)
(-3.38139 0.190644 1.46478e-20)
(-3.55738 0.178932 0)
(-3.72213 0.166189 1.5208e-20)
(-3.87491 0.152486 3.08676e-20)
(-4.01505 0.137873 0)
(-4.14187 0.122402 0)
(-4.25467 0.106135 0)
(-4.35273 0.0891612 0)
(-4.43535 0.0716158 0)
(-4.5019 0.053738 3.16465e-20)
(-4.55173 0.0359391 3.14068e-20)
(-4.58425 0.0187344 3.10494e-20)
(-4.59889 0.00274275 0)
(-4.59491 -0.0114739 -2.98693e-20)
(-4.57699 -0.0240829 0)
(-4.54419 -0.0360864 2.80219e-20)
(-4.49694 -0.047801 2.68607e-20)
(-4.43533 -0.0593419 0)
(-4.35944 -0.0707258 0)
(-4.26937 -0.0819202 0)
(-4.16532 -0.0928668 2.06442e-20)
(-4.04755 -0.103493 0)
(-3.91645 -0.113716 0)
(-3.77252 -0.123449 0)
(-3.6164 -0.132602 0)
(-3.44885 -0.141081 0)
(-3.27075 -0.148794 0)
(-3.08312 -0.155652 0)
(-2.88712 -0.161569 0)
(-2.68399 -0.166461 6.39769e-22)
(-2.47511 -0.170256 0)
(-2.26195 -0.172887 0)
(-2.04607 -0.174298 -8.62241e-21)
(-1.82907 -0.174447 -1.11981e-20)
(-1.61263 -0.173303 0)
(-1.39843 -0.170853 1.60653e-20)
(-1.18816 -0.1671 -1.83023e-20)
(-0.98349 -0.162065 0)
(-0.786016 -0.155791 2.22478e-20)
(-0.597269 -0.148336 0)
(-0.418669 -0.139776 0)
(-0.251519 -0.130199 -2.64745e-20)
(-0.0970587 -0.119664 0)
(0.0439249 -0.10804 2.73825e-20)
(0.171147 -0.0952944 0)
(0.284071 -0.0820588 -2.44381e-20)
(0.38235 -0.0690156 -2.27993e-20)
(0.465879 -0.0565364 -2.12421e-20)
(0.534934 -0.0449332 -3.95439e-20)
(0.590019 -0.034391 3.67819e-20)
(0.631995 -0.0250352 0)
(0.661963 -0.016958 0)
(0.681214 -0.0103095 0)
(0.690999 -0.00358298 2.74692e-20)
(0.691801 0.00453084 2.55559e-20)
(0.682933 0.0140679 -2.37592e-20)
(0.668056 0.0174876 0)
(0.648226 0.0226675 2.05002e-20)
(0.623955 0.0318378 1.86218e-20)
(0.599622 0.0202795 1.65104e-20)
(0.573899 0.0143178 0)
(0.546216 0.025263 0)
(0.516865 0.0236266 0)
(0.487073 0.01812 1.17936e-20)
(0.457154 0.0167557 0)
(0.426895 0.0171311 0)
(0.396209 0.0173957 -9.59234e-21)
(0.365589 0.0173803 0)
(0.335509 0.0171174 0)
(0.306276 0.0166664 -7.76371e-21)
(0.278101 0.0160706 0)
(0.251139 0.0153574 0)
(0.225513 0.0145532 6.24212e-21)
(0.201304 0.0136929 5.80353e-21)
(0.17855 0.0128173 0)
(0.157239 0.0119577 -5.0277e-21)
(0.137336 0.0111229 0)
(0.118812 0.0103007 4.38127e-21)
(0.101645 0.00948319 0)
(0.0858254 0.00867138 3.85375e-21)
(0.0713375 0.00787121 3.63067e-21)
(0.0581587 0.007087 0)
(0.0462612 0.0063186 0)
(0.0356169 0.00556709 0)
(0.0261909 0.00484692 0)
(0.0179174 0.00419048 0)
(0.0106847 0.00363052 0)
(0.00435342 0.00316818 0)
(-0.00120333 0.00277157 2.58979e-21)
(-0.00606612 0.00240691 -2.52435e-21)
(-0.0102753 0.00205566 0)
(-0.0138575 0.00171621 0)
(-0.0168384 0.00139175 0)
(-0.0192472 0.00108163 0)
(-0.0211113 0.000780795 -4.6769e-21)
(-0.02245 0.000488892 0)
(-0.0232831 0.000223465 4.61839e-21)
(-0.0236504 1.5702e-05 -4.60143e-21)
(-0.0236572 -0.000127246 0)
(-0.0234477 -0.000193684 0)
(-0.0231123 -0.000220379 0)
(-0.0226803 -0.00024903 4.58044e-21)
(-0.0221466 -0.000294578 4.5814e-21)
(-0.0214946 -0.000353568 0)
(-0.0207096 -0.000421259 4.58688e-21)
(-0.0197816 -0.000498918 4.59082e-21)
(-0.0186947 -0.00059079 -4.59524e-21)
(-0.0174265 -0.000691075 0)
(-0.0159757 -0.000772732 0)
(-0.014405 -0.000798002 -4.60988e-21)
(-0.0128335 -0.000753711 0)
(-0.0113566 -0.000673537 0)
(-0.00999041 -0.00060599 0)
(-0.0087015 -0.000570725 0)
(-0.00744587 -0.000561459 4.62102e-21)
(-0.0061845 -0.000567958 4.6204e-21)
(-0.0048942 -0.000587274 0)
(-0.00355108 -0.000624675 4.61776e-21)
(-0.00211749 -0.000682043 0)
(-0.000560104 -0.000739869 0)
(0.00108847 -0.000754797 4.61182e-21)
(0.00269903 -0.000694443 0)
(0.00413686 -0.000582571 4.60594e-21)
(0.00536965 -0.000477702 0)
(0.00643912 -0.000409099 0)
(0.00739568 -0.000368998 4.58535e-21)
(0.00828378 -0.000341661 0)
(0.00911776 -0.000319219 4.56874e-21)
(0.00990327 -0.000305383 0)
(0.0106608 -0.000307144 0)
(0.0114237 -0.000313255 0)
(0.0121671 -0.000280603 -4.53497e-21)
(0.012729 -0.000162852 0)
(0.0129039 3.28382e-05 4.51778e-21)
(0.0125888 0.000264438 0)
(0.0117206 0.00049892 0)
(0.0102709 0.000742099 0)
(0.0081926 0.00102787 0)
(0.00535568 0.00138572 0)
(0.00155444 0.00174017 0)
(-0.00310531 0.0017757 0)
(-0.00747374 0.00113147 -8.78586e-21)
(-0.00801596 -0.000518351 0)
(-0.0105626 -0.00185938 0)
(0.146094 -0.569131 2.57406e-20)
(0.293311 -0.691465 -1.96669e-20)
(0.432657 -0.628844 0)
(0.538885 -0.515445 1.28316e-20)
(0.608841 -0.387301 0)
(0.648488 -0.2562 6.17185e-21)
(0.661991 -0.126398 -1.40777e-20)
(0.649008 0.000137434 -1.45261e-20)
(0.621631 0.116404 0)
(0.575504 0.213647 -1.43285e-20)
(0.50626 0.281988 -6.81448e-21)
(0.414011 0.315078 0)
(0.302421 0.315716 0)
(0.175242 0.297944 0)
(0.0335789 0.280916 0)
(-0.124027 0.279111 -6.48894e-21)
(-0.29972 0.297183 0)
(-0.493579 0.332028 1.12835e-20)
(-0.703907 0.376853 0)
(-0.927735 0.424295 0)
(-1.16152 0.469088 -1.08334e-20)
(-1.40176 0.508559 0)
(-1.64516 0.541184 1.11657e-20)
(-1.88852 0.566066 -5.77954e-21)
(-2.12877 0.582885 5.94544e-21)
(-2.36321 0.591814 -6.1703e-21)
(-2.58963 0.593386 -6.44891e-21)
(-2.8063 0.588368 0)
(-3.012 0.577656 0)
(-3.20589 0.562181 7.53288e-21)
(-3.38754 0.542838 -8.4875e-21)
(-3.55677 0.520446 0)
(-3.71362 0.495713 0)
(-3.85827 0.469229 9.23198e-21)
(-3.99099 0.441459 0)
(-4.11209 0.41276 0)
(-4.22188 0.383387 -1.04102e-20)
(-4.32068 0.353509 0)
(-4.40876 0.323232 1.1556e-20)
(-4.48639 0.292607 -2.26304e-20)
(-4.55378 0.261647 0)
(-4.61116 0.230346 0)
(-4.65872 0.198684 -4.83396e-20)
(-4.69666 0.166642 -4.86383e-20)
(-4.7252 0.134213 -4.8723e-20)
(-4.74456 0.101432 2.48651e-20)
(-4.75504 0.0684678 -2.35153e-20)
(-4.75693 0.0356486 -7.07983e-20)
(-4.75044 0.00344428 4.66815e-20)
(-4.73577 -0.0277405 2.20834e-20)
(-4.70859 -0.0578938 0)
(-4.66875 -0.0874303 -2.04427e-20)
(-4.61564 -0.11649 2.0934e-20)
(-4.54895 -0.145082 0)
(-4.46858 -0.173122 0)
(-4.37455 -0.200472 0)
(-4.26699 -0.226955 -1.4422e-20)
(-4.14613 -0.252378 0)
(-4.01236 -0.27653 2.48677e-20)
(-3.86614 -0.299197 0)
(-3.70807 -0.320161 1.8517e-20)
(-3.53888 -0.339211 0)
(-3.35942 -0.35614 -1.18653e-20)
(-3.17065 -0.370754 0)
(-2.97368 -0.382877 5.12153e-21)
(-2.76969 -0.392351 -2.18581e-21)
(-2.55999 -0.399044 0)
(-2.34598 -0.402851 4.68531e-21)
(-2.12911 -0.403698 5.20473e-21)
(-1.91094 -0.401547 6.66966e-21)
(-1.69303 -0.396398 0)
(-1.47699 -0.38829 6.75295e-21)
(-1.26443 -0.377305 1.04903e-20)
(-1.05692 -0.363569 0)
(-0.856014 -0.347251 -1.24699e-20)
(-0.663164 -0.328562 2.43014e-20)
(-0.479735 -0.307749 0)
(-0.306951 -0.285083 1.44907e-20)
(-0.145864 -0.260853 0)
(0.00263914 -0.235348 -4.36995e-20)
(0.137792 -0.208923 0)
(0.258838 -0.182166 4.18129e-20)
(0.365649 -0.155659 1.38095e-20)
(0.458244 -0.129907 -1.22579e-20)
(0.536808 -0.105349 -2.36263e-20)
(0.601705 -0.0823577 2.27011e-20)
(0.653486 -0.0612467 0)
(0.692835 -0.0422383 0)
(0.720544 -0.0254093 0)
(0.737541 -0.0105216 -5.79699e-20)
(0.74528 0.00254909 -1.85189e-20)
(0.745556 0.0132612 1.7517e-20)
(0.738387 0.0211539 0)
(0.724671 0.0270187 1.54684e-20)
(0.705939 0.0311935 -1.4478e-20)
(0.682531 0.0344993 -1.31234e-20)
(0.655994 0.0378727 0)
(0.626266 0.0397566 0)
(0.596693 0.0408951 0)
(0.566411 0.0412717 -9.6117e-21)
(0.535396 0.0418751 0)
(0.504355 0.0421304 1.68807e-20)
(0.473626 0.0417798 2.37904e-20)
(0.443279 0.0408785 -1.48871e-20)
(0.413496 0.0395469 0)
(0.384502 0.0379118 -6.53362e-21)
(0.356497 0.0360693 0)
(0.329643 0.0340838 -1.14074e-20)
(0.304067 0.0320049 5.32579e-21)
(0.279862 0.0298832 4.96875e-21)
(0.257087 0.027772 0)
(0.23577 0.0257141 1.29669e-20)
(0.215914 0.0237282 -8.08196e-21)
(0.197506 0.0218086 -3.77778e-21)
(0.180524 0.0199448 0)
(0.16494 0.0181333 -3.33207e-21)
(0.150726 0.0163789 -9.43692e-21)
(0.137845 0.0146891 0)
(0.126251 0.0130692 -5.65752e-21)
(0.11589 0.0115247 -5.39491e-21)
(0.106698 0.0100714 -5.16591e-21)
(0.0985969 0.0087393 0)
(0.0914985 0.00756059 0)
(0.0853077 0.00654004 0)
(0.0799342 0.00564762 2.26708e-21)
(0.0753026 0.00484354 2.21385e-21)
(0.0713527 0.00409639 0)
(0.0680365 0.0033939 4.27478e-21)
(0.0653132 0.00273541 4.21838e-21)
(0.0631434 0.00212124 0)
(0.0614867 0.0015481 4.14043e-21)
(0.0603018 0.00101433 8.22496e-21)
(0.0595446 0.000532449 -4.09638e-21)
(0.0591556 0.000132594 -4.07718e-21)
(0.0590741 -0.000167802 0)
(0.0592461 -0.00036371 0)
(0.0596114 -0.000489208 0)
(0.0601315 -0.000591346 -4.06983e-21)
(0.0607855 -0.000698375 4.06272e-21)
(0.061567 -0.000816419 8.13796e-21)
(0.0624772 -0.000941931 -4.0763e-21)
(0.063516 -0.00107284 4.06974e-21)
(0.0646796 -0.0012102 4.08308e-21)
(0.0659611 -0.00134774 0)
(0.0673462 -0.00145953 0)
(0.0688028 -0.00150699 -4.0822e-21)
(0.0702815 -0.00147226 0)
(0.0717401 -0.00138414 0)
(0.0731616 -0.00129511 8.19005e-21)
(0.0745475 -0.00123837 0)
(0.0759137 -0.00121783 4.08999e-21)
(0.077284 -0.00122334 -4.09858e-21)
(0.0786759 -0.00124666 0)
(0.0800993 -0.00128795 4.08477e-21)
(0.0815605 -0.00134672 0)
(0.08306 -0.00140279 0)
(0.0845767 -0.00141064 -4.0868e-21)
(0.0860577 -0.00133281 8.15789e-21)
(0.0874472 -0.00118718 -4.08016e-21)
(0.0887256 -0.00103447 0)
(0.0898963 -0.000917858 0)
(0.0909763 -0.000841378 4.05759e-21)
(0.0919919 -0.000788444 0)
(0.0929561 -0.000743727 4.04622e-21)
(0.0938683 -0.00070441 0)
(0.0947217 -0.000673881 0)
(0.0955058 -0.000638796 0)
(0.0961853 -0.000550547 4.02858e-21)
(0.0966713 -0.000352491 0)
(0.0968498 -4.34612e-05 -4.01646e-21)
(0.0966338 0.000329871 0)
(0.0959725 0.000726767 0)
(0.0948218 0.00114034 7.98609e-21)
(0.0931476 0.00159674 -7.96856e-21)
(0.0909212 0.00211371 0)
(0.0881497 0.00259138 0)
(0.0850926 0.00264678 0)
(0.0822643 0.00181993 2.35961e-20)
(0.0825473 -0.000203057 0)
(0.0782368 -0.00182483 -1.55709e-20)
(0.0916625 -0.952378 6.66522e-22)
(0.170059 -0.944361 2.60091e-20)
(0.221247 -0.773657 0)
(0.244034 -0.593193 -2.42528e-20)
(0.244978 -0.418086 0)
(0.228186 -0.249564 0)
(0.195421 -0.0881129 -3.13097e-23)
(0.147649 0.0655583 1.35559e-20)
(0.0867549 0.209955 1.34375e-20)
(0.0134604 0.337861 1.32925e-20)
(-0.0727696 0.438773 0)
(-0.174488 0.507002 0)
(-0.29548 0.548171 -1.04678e-20)
(-0.439457 0.576448 -1.9228e-20)
(-0.608084 0.606296 1.78808e-20)
(-0.799763 0.645899 0)
(-1.00985 0.695748 1.6256e-20)
(-1.23193 0.751377 -7.77494e-21)
(-1.45948 0.806821 0)
(-1.68696 0.856905 1.60678e-20)
(-1.91014 0.898161 7.7724e-21)
(-2.12593 0.928675 -1.71467e-20)
(-2.33218 0.947681 -8.25771e-21)
(-2.52755 0.955288 0)
(-2.71143 0.95224 2.00572e-20)
(-2.88379 0.939695 2.12726e-20)
(-3.04507 0.919036 0)
(-3.19597 0.89171 2.39284e-20)
(-3.33735 0.859118 0)
(-3.47013 0.82253 2.67383e-20)
(-3.59517 0.783039 1.31319e-20)
(-3.71323 0.741546 0)
(-3.82494 0.698752 0)
(-3.93076 0.65518 0)
(-4.031 0.611191 0)
(-4.12585 0.567015 0)
(-4.21532 0.52278 0)
(-4.29933 0.478537 3.67078e-20)
(-4.3777 0.434285 -5.57633e-20)
(-4.45016 0.389996 0)
(-4.51636 0.345626 0)
(-4.57589 0.301137 0)
(-4.6283 0.256499 -1.13353e-21)
(-4.67308 0.211705 3.8863e-20)
(-4.7097 0.166759 7.89257e-20)
(-4.73754 0.121672 -7.86504e-20)
(-4.75592 0.0764334 -3.96226e-20)
(-4.76404 0.0309798 3.78872e-20)
(-4.76108 -0.0148203 1.32326e-21)
(-4.74626 -0.0611289 3.7358e-20)
(-4.71894 -0.107884 0)
(-4.67882 -0.154678 3.47945e-20)
(-4.62559 -0.201203 1.5065e-21)
(-4.55902 -0.247183 0)
(-4.47898 -0.292335 0)
(-4.38546 -0.336359 -2.76492e-20)
(-4.27858 -0.378934 0)
(-4.15853 -0.419723 0)
(-4.02565 -0.458379 2.25716e-20)
(-3.88041 -0.49455 3.68251e-20)
(-3.72337 -0.527888 -1.41495e-20)
(-3.55524 -0.558052 0)
(-3.37685 -0.584717 8.9891e-21)
(-3.18913 -0.607581 0)
(-2.99316 -0.626369 7.39308e-21)
(-2.79011 -0.640842 1.33292e-21)
(-2.58125 -0.650803 -1.28856e-21)
(-2.36796 -0.656101 -8.11989e-24)
(-2.15167 -0.656638 0)
(-1.93391 -0.652371 -1.23155e-20)
(-1.71621 -0.643322 0)
(-1.50016 -0.629576 -3.17719e-20)
(-1.28735 -0.611289 -2.35445e-20)
(-1.07932 -0.588685 -2.6648e-20)
(-0.877605 -0.562058 2.94085e-20)
(-0.683642 -0.531771 -4.91174e-20)
(-0.498774 -0.498251 0)
(-0.32421 -0.461982 0)
(-0.160999 -0.423509 3.70059e-20)
(-0.0100153 -0.383438 5.80602e-20)
(0.128029 -0.342385 0)
(0.252473 -0.300993 -1.95875e-20)
(0.363113 -0.259879 0)
(0.459894 -0.219676 5.41715e-20)
(0.542948 -0.180995 1.21641e-21)
(0.612579 -0.144387 -1.06639e-21)
(0.669247 -0.110315 -3.23375e-20)
(0.713551 -0.0791234 0)
(0.746213 -0.050989 2.99545e-20)
(0.768151 -0.0258528 6.08264e-22)
(0.78051 -0.00364753 0)
(0.784629 0.015436 0)
(0.781317 0.0310606 0)
(0.771375 0.0436776 -2.42604e-20)
(0.755993 0.0533496 0)
(0.73557 0.0596047 0)
(0.710907 0.0642732 0)
(0.683856 0.0680368 0)
(0.655444 0.0696476 0)
(0.625985 0.0698748 -1.63604e-20)
(0.595829 0.069804 0)
(0.565788 0.069403 -1.46378e-20)
(0.536306 0.0684378 -1.38074e-20)
(0.507476 0.0668415 1.30145e-20)
(0.479414 0.0646818 0)
(0.452264 0.0620715 1.15141e-20)
(0.426162 0.0591223 0)
(0.401219 0.0559288 1.01243e-20)
(0.377518 0.0525718 -9.47642e-21)
(0.355118 0.0491287 -2.64095e-20)
(0.334057 0.0456749 0)
(0.314358 0.042273 -2.31155e-20)
(0.296031 0.0389599 -7.12852e-21)
(0.279068 0.0357462 0)
(0.263444 0.0326302 -1.26826e-20)
(0.249127 0.0296131 -1.19465e-20)
(0.236079 0.0267029 1.69668e-20)
(0.224257 0.0239116 0)
(0.213609 0.0212513 5.1155e-21)
(0.204076 0.018735 4.88146e-21)
(0.19559 0.0163836 1.39874e-20)
(0.18808 0.0142278 0)
(0.181479 0.0122964 0)
(0.175725 0.0105924 0)
(0.170755 0.00908522 4.08744e-21)
(0.166503 0.00772801 0)
(0.162905 0.00648068 0)
(0.159904 0.00532213 -3.88373e-21)
(0.157451 0.00424634 -3.83389e-21)
(0.155503 0.00325246 0)
(0.154015 0.00233892 0)
(0.152938 0.0015061 -7.48307e-21)
(0.152222 0.000764072 0)
(0.151818 0.000135034 7.43009e-21)
(0.151688 -0.000352935 7.40984e-21)
(0.151805 -0.00070251 0)
(0.152134 -0.000951738 0)
(0.152642 -0.0011526 -7.40449e-21)
(0.153299 -0.00134324 -6.90338e-24)
(0.154083 -0.00153823 -6.8052e-24)
(0.154983 -0.00173702 0)
(0.155991 -0.00193571 -1.48622e-20)
(0.157092 -0.0021312 0)
(0.158267 -0.00231344 0)
(0.159494 -0.00245525 0)
(0.160758 -0.00251892 7.46583e-21)
(0.162047 -0.00248712 0)
(0.163352 -0.00238862 -1.49464e-20)
(0.164662 -0.00228006 -7.48428e-21)
(0.165966 -0.00220413 0)
(0.167263 -0.00217254 -7.48694e-21)
(0.168562 -0.00217658 0)
(0.169872 -0.00220445 0)
(0.171194 -0.00225055 -2.2432e-20)
(0.17252 -0.00230879 1.49438e-20)
(0.173835 -0.00235509 0)
(0.175126 -0.00234242 1.49298e-20)
(0.17638 -0.00223293 -7.46771e-21)
(0.17759 -0.00204396 0)
(0.178748 -0.00183939 0)
(0.179846 -0.00167183 0)
(0.18088 -0.00155307 -2.23091e-20)
(0.18186 -0.00146669 0)
(0.182794 -0.00139192 -7.42051e-21)
(0.183679 -0.00131895 0)
(0.184497 -0.00124439 0)
(0.185218 -0.00114867 0)
(0.185808 -0.000977524 0)
(0.186225 -0.00066889 0)
(0.186422 -0.000216346 0)
(0.18636 0.000328523 -1.47009e-20)
(0.185999 0.0009136 0)
(0.18531 0.00152416 -7.32558e-21)
(0.184288 0.00217508 2.19291e-20)
(0.182978 0.00285459 0)
(0.181472 0.00340337 0)
(0.179996 0.00336985 -1.45025e-20)
(0.178507 0.00222478 -1.44469e-20)
(0.178998 -0.000192257 1.44265e-20)
(0.1742 -0.00260389 1.42997e-20)
(0.0368528 -1.1071 -4.68085e-20)
(0.019475 -0.96787 -3.79526e-20)
(-0.00347564 -0.754161 -2.29813e-20)
(-0.0422527 -0.545715 -1.03144e-20)
(-0.0918227 -0.344773 0)
(-0.150849 -0.150653 2.16833e-20)
(-0.219785 0.0359969 -1.00849e-20)
(-0.298945 0.213205 0)
(-0.387995 0.377789 -1.07398e-20)
(-0.486426 0.524693 0)
(-0.595085 0.648899 1.83622e-20)
(-0.71693 0.749622 0)
(-0.855696 0.832056 7.97434e-21)
(-1.01341 0.904291 1.47761e-20)
(-1.18871 0.972693 -1.38762e-20)
(-1.37704 1.03937 0)
(-1.5721 1.10255 -1.28559e-20)
(-1.76762 1.15867 0)
(-1.95852 1.20432 0)
(-2.14136 1.23734 -1.30292e-20)
(-2.31422 1.25694 0)
(-2.47637 1.26346 -1.9383e-21)
(-2.62797 1.25793 0)
(-2.76981 1.24183 0)
(-2.90304 1.21683 2.10779e-21)
(-3.02898 1.18462 -1.77918e-20)
(-3.14893 1.14679 -2.09917e-20)
(-3.26407 1.10475 -2.00933e-20)
(-3.37537 1.05966 0)
(-3.48358 1.01247 -4.69244e-20)
(-3.58922 0.963885 0)
(-3.69255 0.914408 -2.66985e-20)
(-3.79366 0.864366 0)
(-3.89247 0.813942 0)
(-3.98872 0.763204 2.99616e-20)
(-4.08207 0.71214 0)
(-4.17206 0.660674 -3.19169e-20)
(-4.25816 0.608695 1.49399e-21)
(-4.3398 0.556074 6.57326e-20)
(-4.41633 0.502673 -6.86512e-20)
(-4.48708 0.448366 0)
(-4.55136 0.393041 0)
(-4.60844 0.336612 -3.73523e-20)
(-4.65759 0.279022 0)
(-4.69806 0.220253 -3.4771e-20)
(-4.72913 0.160326 3.47534e-20)
(-4.75004 0.0992985 3.45837e-20)
(-4.7601 0.0372473 0)
(-4.75864 -0.0257281 -3.35906e-20)
(-4.74515 -0.0894844 -3.27228e-20)
(-4.71919 -0.153788 6.66025e-20)
(-4.6804 -0.218281 -3.04989e-20)
(-4.62846 -0.282581 -2.91484e-20)
(-4.56315 -0.346289 0)
(-4.48433 -0.408981 0)
(-4.39195 -0.470211 2.42302e-20)
(-4.28611 -0.529511 0)
(-4.16699 -0.586397 0)