/*--------------------------------*- C++ -*----------------------------------*\
  =========                 |
  \\      /  F ield         | OpenFOAM: The Open Source CFD Toolbox
   \\    /   O peration     | Website:  https://openfoam.org
    \\  /    A nd           | Version:  9
     \\/     M anipulation  |
\*---------------------------------------------------------------------------*/
FoamFile
{
    format      ascii;
    class       volScalarField;
    location    "0.05";
    object      epsilon;
}
// * * * * * * * * * * * * * * * * * * * * * * * * * * * * * * * * * * * * * //

dimensions      [0 2 -3 0 0 0 0];

internalField   nonuniform List<scalar> 
12225
(
209.582
126.128
81.543
58.0974
45.3894
37.9203
32.9735
29.2874
26.3025
23.7677
21.5596
19.6143
17.9088
16.4812
15.527
16.567
27.2287
117.128
61.614
54.8726
42.0921
33.2168
27.4677
23.5931
20.8344
18.739
17.045
15.6031
14.3226
13.1427
12.0208
10.9356
9.93307
9.86438
16.5907
73.5504
31.5306
33.1949
28.7827
24.3063
20.789
18.1478
16.1546
14.6095
13.3696
12.3401
11.4558
10.6668
9.93208
9.22587
8.62825
9.11462
16.9082
64.9004
21.8772
23.8654
22.1717
19.6751
17.3481
15.4104
13.8509
12.5986
11.582
10.744
10.0413
9.43849
8.90691
8.43997
8.18074
9.24666
17.7982
59.6744
17.8415
19.0988
18.3142
16.787
15.1672
13.6978
12.443
11.3957
10.5275
9.8083
9.21195
8.71692
8.30909
8.00622
8.00646
9.47668
18.0321
53.9101
15.8955
16.4211
15.8914
14.8399
13.645
12.4946
11.4649
10.5752
9.82062
9.18872
8.66642
8.24356
7.91938
7.7334
7.91868
9.59932
17.5699
47.3648
14.8862
14.8378
14.3136
13.4818
12.5364
11.5999
10.7354
9.96831
9.30467
8.74225
8.27692
7.90719
7.6429
7.53942
7.84233
9.5661
16.5925
40.5197
14.3447
13.8789
13.2706
12.5232
11.7164
10.9184
10.1718
9.49848
8.90738
8.40136
7.98175
7.65298
7.43234
7.38412
7.74711
9.38875
15.3121
33.9103
14.0503
13.2947
12.5805
11.8475
11.1103
10.3971
9.73127
9.12712
8.59246
8.13169
7.74887
7.45196
7.26255
7.24744
7.62461
9.10263
13.9134
27.9345
13.8902
12.9411
12.1285
11.3769
10.6672
10.0017
9.3881
8.83279
8.34045
7.91492
7.5611
7.28849
7.1202
7.12042
7.47804
8.74939
12.5351
22.8145
13.8036
12.7304
11.8379
11.0554
10.3495
9.70722
9.12486
8.60212
8.14006
7.74089
7.40909
7.15421
6.99873
7.00059
7.31637
8.36803
11.2681
18.6231
13.7609
12.6174
11.6708
10.8594
10.1463
9.51136
8.9443
8.44011
7.99681
7.61484
7.29763
7.05382
6.90387
6.89811
7.16397
8.02134
10.2534
15.5964
13.7365
12.5484
11.5624
10.7255
10.0014
9.36665
8.80701
8.31406
7.88335
7.51356
7.20676
6.97017
6.82138
6.80208
7.01173
7.68311
9.34343
13.0889
13.7219
12.5045
11.4892
10.6302
9.89356
9.25491
8.69784
8.21157
7.78956
7.42877
7.12968
6.89755
6.74619
6.70763
6.85406
7.3432
8.50494
10.9777
13.7142
12.4799
11.4458
10.5707
9.82297
9.17897
8.62146
8.13835
7.72162
7.36674
7.07255
6.842
6.68467
6.62278
6.70424
7.0272
7.78183
9.309
13.7106
12.4681
11.4241
10.5396
9.78471
9.13665
8.57817
8.09662
7.68311
7.33193
7.04039
6.80911
6.64345
6.55677
6.57731
6.76
7.20436
8.07597
13.709
12.4634
11.4156
10.5276
9.77031
9.1213
8.56351
8.08405
7.67347
7.32519
7.03517
6.80196
6.62722
6.51723
6.4859
6.55978
6.78471
7.23241
13.7082
12.4619
11.4139
10.5266
9.77097
9.12456
8.5702
8.09471
7.68814
7.34315
7.05461
6.81937
6.63629
6.50666
6.43526
6.43203
6.51413
6.70764
13.7075
12.4615
11.4157
10.5321
9.78138
9.14066
8.59229
8.12261
7.7211
7.37977
7.09262
6.85528
6.66478
6.5195
6.41925
6.36567
6.36258
6.41633
13.7077
12.4645
11.4239
10.5472
9.80379
9.17007
8.62769
8.16256
7.76387
7.42336
7.13472
6.89313
6.69497
6.53755
6.41901
6.33828
6.29506
6.28981
13.7111
12.4773
11.449
10.5847
9.85158
9.22514
8.68681
8.22274
7.82249
7.47814
7.18362
6.93421
6.72614
6.55644
6.42266
6.32282
6.2553
6.21876
13.7248
12.5197
11.5216
10.6813
9.96321
9.34298
8.80367
8.33334
7.92329
7.5669
7.25894
6.99516
6.772
6.58642
6.43577
6.3177
6.23011
6.17115
13.7679
12.6384
11.7045
10.9035
10.2004
9.57673
9.02219
8.53006
8.0953
7.71359
7.38095
7.09368
6.84834
6.64174
6.47094
6.33323
6.22617
6.14774
13.8897
12.9344
12.1144
11.3586
10.6512
9.99465
9.39394
8.85196
8.369
7.94322
7.57149
7.25003
6.97485
6.74206
6.54796
6.38918
6.26273
6.16631
14.2106
13.6058
12.9451
12.2045
11.4331
10.6793
9.97729
9.34224
8.779
8.28633
7.85985
7.4939
7.18253
6.92008
6.70133
6.52169
6.37723
6.2651
15.0203
15.0425
14.5225
13.6713
12.7014
11.7403
10.8506
10.0632
9.38089
8.79711
8.30165
7.88366
7.53299
7.24067
6.999
6.8015
6.64287
6.51935
17.0568
18.0671
17.4475
16.1531
14.7131
13.3554
12.1613
11.1454
10.3006
9.60278
9.02783
8.55481
8.16631
7.8483
7.58951
7.38097
7.21563
7.0884
22.5634
24.7131
23.024
20.4732
18.0373
15.9682
14.2898
12.9504
11.891
11.0555
10.3935
9.86696
9.44732
9.11336
8.84921
8.64283
8.4851
8.36912
40.8358
41.2286
34.9585
29.0848
24.534
21.1351
18.6277
16.7739
15.3922
14.3668
13.5973
13.0151
12.5736
12.241
11.995
11.8195
11.7029
11.6358
135.874
96.9826
71.6022
55.0144
44.1445
36.9756
32.1795
28.8947
26.6169
25.0313
23.8984
23.0794
22.4911
22.0804
21.812
21.6608
21.6077
21.6362
29.7667
38.0613
47.3669
53.1478
56.3607
57.7009
57.665
56.6093
54.792
52.4823
50.5402
49.3584
48.9832
49.6909
51.9108
56.1064
62.5803
71.2354
81.1798
90.89
98.9994
104.603
107.817
112.416
122.385
137.885
158.623
183.614
211.6
241.392
272.014
302.722
332.981
362.427
390.826
418.042
444.011
468.716
492.177
514.443
535.576
555.661
574.794
593.094
610.702
627.791
644.576
661.336
677.712
693.21
707.899
721.818
734.963
747.309
758.814
769.43
779.099
787.76
795.345
801.787
807.013
810.953
813.532
814.678
814.321
812.392
808.827
803.567
796.558
787.757
777.13
764.654
750.324
734.148
716.162
696.434
675.093
652.414
629.26
608.728
595.25
582.687
569.344
554.848
539.149
522.31
504.443
485.683
466.171
446.05
425.456
404.512
383.324
361.966
340.473
318.816
296.789
274.118
251.99
230.144
208.238
186.205
164.182
142.476
121.546
101.963
84.3405
69.2232
57.3533
52.8112
52.2125
51.6901
11.676
10.7913
9.6405
8.39625
7.21436
6.20589
5.42228
4.85998
4.48146
4.23885
4.08922
4.00026
3.94988
3.9237
3.91263
3.911
3.91527
3.92319
3.93332
3.94468
3.95658
3.96848
3.97992
3.99059
4.00041
4.00972
4.01897
4.02719
4.03413
4.03997
4.04489
4.04905
4.05253
4.05533
4.05736
4.05856
4.05894
4.05864
4.05786
4.05686
4.0558
4.05486
4.0541
4.05357
4.05316
4.0527
4.05198
4.05088
4.04944
4.04784
4.04629
4.04493
4.04386
4.0431
4.04265
4.04238
4.04206
4.04143
4.04073
4.03995
4.03879
4.03728
4.03561
4.03431
4.03466
4.03843
4.04534
4.04849
61.197
49.6129
45.0898
42.1356
39.8605
38.0933
36.8095
36.0406
35.8766
36.5516
38.4773
41.8182
46.9398
54.484
65.1397
79.638
98.6636
123.17
151.208
179.024
205.073
227.447
244.607
256.021
262.194
264.251
263.557
261.265
258.192
254.886
251.699
248.845
246.441
244.537
243.14
242.23
241.774
241.737
242.084
242.787
243.828
245.202
246.919
249.007
251.512
254.509
258.099
262.481
267.43
272.444
277.454
282.436
287.363
292.212
296.953
301.558
305.995
310.232
314.232
317.96
321.379
324.449
327.13
329.383
331.165
332.436
333.156
333.286
332.786
331.623
329.763
327.179
323.846
319.75
314.885
309.257
302.9
295.886
288.355
280.541
272.984
265.62
257.992
249.979
241.573
232.814
223.762
214.487
205.061
195.555
186.035
176.562
167.187
157.955
148.896
140.025
131.349
122.93
115.353
108.483
101.912
95.4638
89.053
82.643
76.2201
69.7708
63.2704
56.6663
49.9083
42.7904
35.9418
29.5724
21.802
16.6189
12.8385
9.99212
7.8388
6.23111
5.06288
4.24289
3.68691
3.32034
3.08276
2.92961
2.83052
2.76589
2.72344
2.69551
2.6773
2.66572
2.65875
2.65498
2.65344
2.65342
2.65439
2.65596
2.65792
2.66021
2.66296
2.6656
2.66786
2.66969
2.67115
2.67226
2.67306
2.67354
2.67368
2.67345
2.67285
2.67193
2.67075
2.66941
2.66798
2.66653
2.66509
2.66369
2.66232
2.66092
2.65944
2.65785
2.65614
2.6544
2.65269
2.65108
2.64962
2.64834
2.64725
2.64636
2.64564
2.64505
2.64488
2.64515
2.64578
2.64683
2.64846
2.65103
2.6552
2.6624
2.67411
2.705
85.7364
62.7613
54.1938
49.486
46.48
44.6017
43.7558
44.0866
45.9625
49.8832
55.9699
64.8787
77.6569
95.6173
117.894
144.013
172.453
200.779
225.837
244.742
255.976
259.437
256.308
248.572
238.351
227.395
216.887
207.469
199.394
192.688
187.263
182.975
179.667
177.184
175.389
174.168
173.435
173.127
173.205
173.645
174.437
175.578
177.069
178.912
181.11
183.661
186.561
189.804
193.25
196.83
200.515
204.283
208.11
211.975
215.853
219.717
223.54
227.294
230.947
234.468
237.824
240.979
243.899
246.546
248.884
250.873
252.478
253.659
254.38
254.604
254.297
253.428
251.968
249.894
247.189
243.844
239.861
235.254
230.044
224.237
217.874
211.403
204.671
197.64
190.325
182.774
175.045
167.204
159.319
151.455
143.673
136.027
128.565
121.326
114.34
107.629
101.21
95.1112
89.4153
84.2152
79.3769
74.791
70.3618
66.0167
61.7134
57.4369
53.1813
48.9133
44.5537
39.9335
34.9998
29.7826
24.3488
19.3462
15.0581
11.5838
8.8915
6.87982
5.42476
4.40414
3.70821
3.24466
2.94079
2.74302
2.61419
2.52977
2.47407
2.43718
2.41284
2.397
2.38702
2.3811
2.378
2.37684
2.37699
2.37798
2.37949
2.38134
2.38342
2.38544
2.38719
2.38863
2.38974
2.39055
2.39107
2.39133
2.39133
2.39106
2.39052
2.38973
2.38872
2.38753
2.38621
2.38481
2.38336
2.38189
2.38042
2.37895
2.37746
2.37596
2.37443
2.37291
2.37143
2.37003
2.36876
2.36765
2.36675
2.36609
2.36572
2.36569
2.36614
2.36716
2.36877
2.37108
2.37421
2.3784
2.38405
2.39211
2.40389
2.42675
108.934
76.3409
66.0329
61.2552
58.7878
57.9098
58.6783
61.6138
67.4888
75.9726
87.6417
102.986
122.232
145.007
169.913
194.81
217.017
233.875
243.471
245.256
240.178
230.211
217.653
204.513
192.19
181.435
172.497
165.308
159.652
155.27
151.916
149.38
147.489
146.109
145.14
144.513
144.187
144.139
144.361
144.853
145.618
146.663
147.987
149.592
151.472
153.617
156.012
158.639
161.447
164.41
167.506
170.718
174.026
177.408
180.842
184.305
187.772
191.216
194.609
197.922
201.126
204.188
207.076
209.757
212.197
214.359
216.21
217.713
218.832
219.533
219.782
219.545
218.794
217.5
215.64
213.196
210.154
206.505
202.234
197.314
191.69
185.808
179.644
173.198
166.504
159.612
152.585
145.489
138.389
131.35
124.43
117.681
111.148
104.868
98.8694
93.1705
87.7833
82.7176
77.9896
73.624
69.5673
65.7575
62.1265
58.6105
55.1599
51.7451
48.3508
44.9518
41.488
37.8532
33.9512
29.7304
25.247
20.7549
16.5606
12.916
9.94709
7.65572
5.96367
4.75878
3.92595
3.36359
2.99003
2.7441
2.58249
2.47598
2.40543
2.35855
2.32746
2.30707
2.29403
2.28606
2.28164
2.27966
2.27935
2.28014
2.28161
2.28347
2.2855
2.28748
2.28925
2.29074
2.29193
2.29282
2.29343
2.29378
2.29389
2.29375
2.29339
2.29279
2.29198
2.29097
2.2898
2.28851
2.28712
2.28569
2.28424
2.28279
2.28137
2.27996
2.27857
2.27721
2.27589
2.27465
2.27353
2.27256
2.27181
2.27133
2.27121
2.27151
2.27235
2.2738
2.27594
2.27886
2.28267
2.28751
2.2936
2.30157
2.31212
2.32829
132.137
92.867
82.2146
78.2323
77.0901
78.1186
81.5738
87.9439
96.7366
108.405
123.104
140.568
160.001
179.995
198.59
213.612
223.175
226.23
222.908
214.472
202.859
190.072
177.694
166.7
157.501
150.116
144.345
139.909
136.528
133.957
131.999
130.501
129.351
128.471
127.816
127.359
127.095
127.028
127.167
127.522
128.105
128.923
129.978
131.269
132.792
134.538
136.495
138.651
140.981
143.469
146.097
148.848
151.706
154.651
157.662
160.719
163.799
166.878
169.93
172.931
175.853
178.668
181.348
183.863
186.183
188.276
190.111
191.655
192.876
193.741
194.218
194.275
193.881
193.008
191.629
189.721
187.262
184.232
180.608
176.358
171.429
166.159
160.599
154.765
148.699
142.454
136.094
129.683
123.287
116.969
110.786
104.788
99.0157
93.504
88.2768
83.3496
78.7297
74.4176
70.41
66.7016
63.2498
60.0088
56.9252
53.9445
51.0203
48.1194
45.2203
42.2995
39.3142
36.1971
32.8717
29.273
25.4011
21.3812
17.4471
13.8584
10.8045
8.36151
6.50575
5.15395
4.20119
3.54621
3.10366
2.80763
2.61031
2.47859
2.3903
2.33091
2.29096
2.26425
2.24669
2.2355
2.2288
2.22523
2.22384
2.22394
2.22499
2.22662
2.22852
2.23044
2.23224
2.23383
2.23516
2.23621
2.237
2.23753
2.23783
2.23791
2.23777
2.23741
2.23683
2.23606
2.2351
2.23399
2.23276
2.23146
2.23013
2.22882
2.22752
2.22627
2.22505
2.22386
2.22272
2.22165
2.22068
2.21986
2.21926
2.21895
2.21901
2.21952
2.22058
2.22226
2.22463
2.22777
2.23176
2.23667
2.24261
2.24995
2.25893
2.27061
154.919
113.996
103.574
100.573
100.955
103.975
109.521
116.916
126.546
138.43
152.155
166.842
181.197
193.651
202.633
206.938
206.086
200.492
191.35
180.262
168.778
158.065
148.786
141.162
135.125
130.452
126.879
124.15
122.049
120.403
119.084
118
117.092
116.327
115.691
115.186
114.822
114.612
114.574
114.72
115.063
115.609
116.362
117.323
118.489
119.853
121.406
123.141
125.041
127.092
129.279
131.588
134.002
136.505
139.079
141.703
144.358
147.024
149.677
152.297
154.86
157.341
159.718
161.963
164.053
165.96
167.657
169.116
170.308
171.204
171.773
171.987
171.814
171.227
170.195
168.692
166.693
164.172
161.104
157.456
153.185
148.544
143.611
138.409
132.984
127.392
121.694
115.958
110.249
104.628
99.1499
93.863
88.8058
84.0078
79.489
75.2602
71.3236
67.6733
64.2965
61.1751
58.266
55.5274
52.9111
50.3677
47.8534
45.3345
42.7882
40.1944
37.5248
34.7368
31.7752
28.5838
25.1416
21.5155
17.8756
14.4473
11.43
8.93791
6.99021
5.53553
4.48714
3.75143
3.24452
2.89903
2.66456
2.50531
2.39674
2.32239
2.27135
2.23638
2.21264
2.19683
2.18665
2.18049
2.1772
2.17591
2.17599
2.17693
2.17838
2.18002
2.18169
2.18325
2.18463
2.18578
2.18671
2.1874
2.18789
2.18817
2.18824
2.18812
2.18778
2.18724
2.18652
2.18563
2.18462
2.18352
2.18238
2.18124
2.18013
2.17906
2.17803
2.17704
2.17609
2.17521
2.17441
2.17376
2.1733
2.17313
2.17332
2.17396
2.17511
2.17686
2.17926
2.18236
2.18621
2.19085
2.19629
2.20274
2.21014
2.21884
173.66
145.994
131.265
127.217
128.154
131.679
136.65
143.223
151.336
160.603
170.278
179.317
186.535
190.838
191.488
188.315
181.793
172.914
162.907
152.915
143.776
135.944
129.543
124.482
120.559
117.54
115.204
113.364
111.872
110.616
109.522
108.54
107.647
106.834
106.105
105.474
104.956
104.57
104.33
104.252
104.347
104.623
105.083
105.73
106.562
107.574
108.76
110.113
111.62
113.267
115.043
116.932
118.922
120.996
123.139
125.333
127.561
129.804
132.045
134.264
136.443
138.562
140.6
142.538
144.355
146.03
147.539
148.859
149.967
150.836
151.439
151.75
151.738
151.374
150.628
149.471
147.874
145.807
143.241
140.146
136.481
132.445
128.114
123.517
118.699
113.719
108.641
103.533
98.4606
93.4859
88.6634
84.0389
79.6478
75.5152
71.656
68.0754
64.7697
61.727
58.9275
56.3448
53.937
51.6598
49.4666
47.3103
45.1488
42.9489
40.688
38.3499
35.9174
33.3658
30.6598
27.7576
24.6372
21.3371
17.9813
14.7554
11.8445
9.37596
7.39596
5.88052
4.76307
3.96175
3.39808
3.00607
2.73475
2.54688
2.41628
2.32505
2.26104
2.21609
2.18464
2.16286
2.14806
2.13834
2.13231
2.12892
2.12741
2.12718
2.12777
2.12881
2.13008
2.13139
2.13264
2.13375
2.13469
2.13545
2.13603
2.13643
2.13665
2.13669
2.13654
2.1362
2.13568
2.135
2.1342
2.1333
2.13236
2.13141
2.13049
2.1296
2.12876
2.12796
2.12719
2.12648
2.12585
2.12535
2.12503
2.12496
2.12523
2.12591
2.12706
2.12876
2.13103
2.13392
2.13745
2.1416
2.14637
2.15184
2.15783
2.16444
781.938
263.425
176.521
158.196
155.061
156.277
159.417
163.705
168.647
173.661
177.998
180.837
181.448
179.388
174.637
167.628
159.138
150.078
141.278
133.332
126.552
121.007
116.604
113.165
110.488
108.381
106.681
105.257
104.012
102.881
101.82
100.809
99.8431
98.9266
98.0724
97.2971
96.6188
96.0552
95.6224
95.334
95.2006
95.23
95.427
95.7936
96.3294
97.0316
97.8956
98.9134
100.072
101.361
102.767
104.278
105.882
107.564
109.309
111.104
112.932
114.779
116.63
118.468
120.279
122.046
123.756
125.392
126.937
128.376
129.691
130.864
131.874
132.699
133.317
133.7
133.822
133.652
133.16
132.313
131.078
129.422
127.311
124.713
121.589
118.104
114.315
110.252
105.966
101.515
96.9683
92.3967
87.8695
83.4512
79.1977
75.1539
71.3529
67.8153
64.5505
61.5573
58.825
56.3351
54.0614
51.9707
50.0216
48.166
46.3571
44.549
42.7005
40.7795
38.7646
36.6431
34.4065
32.0435
29.5352
26.8559
23.9893
20.9618
17.8665
14.8533
12.0851
9.68725
7.72013
6.18006
5.019
4.1683
3.55721
3.12343
2.81708
2.6007
2.44728
2.33793
2.25959
2.2033
2.16288
2.134
2.11359
2.09943
2.0899
2.08376
2.0801
2.0782
2.07751
2.0776
2.07816
2.07897
2.07986
2.08072
2.0815
2.08217
2.0827
2.08309
2.08334
2.08343
2.08337
2.08314
2.08275
2.08222
2.08157
2.08083
2.08005
2.07926
2.07848
2.07775
2.07705
2.0764
2.07578
2.07521
2.07471
2.07432
2.07409
2.07409
2.07438
2.07503
2.07611
2.07766
2.07971
2.08228
2.08537
2.08895
2.09298
2.09749
2.10225
2.10735
815.35
287.762
199.832
180.089
175.382
174.958
175.953
177.325
178.484
178.915
178.124
175.694
171.403
165.32
157.816
149.485
141.001
132.96
125.781
119.675
114.669
110.671
107.52
105.038
103.054
101.421
100.021
98.7656
97.5927
96.4639
95.359
94.2722
93.2082
92.1786
91.1995
90.2887
89.4643
88.7433
88.1409
87.6698
87.3401
87.1593
87.1322
87.2615
87.5472
87.9878
88.5797
89.3138
90.1777
91.1598
92.2492
93.4342
94.703
96.043
97.4416
98.8859
100.363
101.86
103.365
104.865
106.349
107.804
109.22
110.585
111.888
113.117
114.258
115.299
116.223
117.011
117.645
118.099
118.347
118.359
118.102
117.54
116.637
115.354
113.653
111.494
108.841
105.835
102.504
98.8842
95.0258
90.9931
86.8591
82.701
78.595
74.6111
70.8093
67.2362
63.9236
60.8884
58.134
55.6519
53.4239
51.4237
49.6182
47.9685
46.4303
44.953
43.4886
41.9911
40.4206
38.7463
36.9485
35.0182
32.9532
30.7526
28.4107
25.9154
23.2594
20.4646
17.6041
14.7993
12.1896
9.89089
7.96864
6.43274
5.2505
4.36614
3.71769
3.24799
2.90962
2.66589
2.48973
2.36172
2.26822
2.19966
2.14933
2.11246
2.08563
2.0663
2.05262
2.04316
2.03684
2.03282
2.03046
2.02925
2.02879
2.02881
2.02908
2.02947
2.02989
2.03027
2.03059
2.03082
2.03095
2.03097
2.03087
2.03064
2.03028
2.0298
2.02922
2.02856
2.02787
2.02717
2.02649
2.02585
2.02524
2.02467
2.02415
2.02366
2.02324
2.02292
2.02273
2.02274
2.02301
2.02358
2.02451
2.02586
2.02762
2.02981
2.03241
2.03539
2.03869
2.04232
2.04606
2.05001
181.292
201.678
195.295
190.308
187.978
186.872
185.924
184.475
182.108
178.557
173.678
167.467
160.096
151.917
143.408
135.077
127.36
120.55
114.78
110.045
106.245
103.229
100.831
98.8945
97.2806
95.8786
94.6037
93.3957
92.216
91.0432
89.8698
88.6988
87.5402
86.4085
85.3209
84.2952
83.3488
82.4978
81.7562
81.136
80.6466
80.295
80.0862
80.0226
80.1051
80.3325
80.7021
81.2038
81.8246
82.5533
83.3795
84.2924
85.281
86.3345
87.4415
88.591
89.7723
90.9746
92.1882
93.4036
94.6119
95.805
96.9751
98.1149
99.2168
100.273
101.276
102.214
103.076
103.847
104.51
105.043
105.42
105.61
105.58
105.289
104.695
103.753
102.418
100.643
98.4037
95.797
92.8379
89.5615
86.0209
82.2845
78.4325
74.5511
70.7266
67.0389
63.5554
60.3271
57.3866
54.7478
52.4082
50.3515
48.5505
46.9705
45.5706
44.3056
43.1274
41.9826
40.821
39.5966
38.2706
36.8139
35.2091
33.4502
31.5405
29.4866
27.2929
24.9588
22.4853
19.8943
17.2455
14.6385
12.1912
10.0072
8.15108
6.64102
5.45625
4.55246
3.87659
3.37737
3.01074
2.74164
2.54353
2.39696
2.28798
2.20661
2.14574
2.10023
2.06633
2.04125
2.02288
2.00961
2.00019
1.99366
1.98926
1.98641
1.98464
1.98359
1.983
1.98269
1.98253
1.98244
1.98237
1.98228
1.98214
1.98195
1.98168
1.98133
1.98088
1.98035
1.97975
1.97909
1.97841
1.97773
1.97707
1.97645
1.97587
1.97533
1.97483
1.97438
1.97398
1.97367
1.97348
1.97345
1.97364
1.97408
1.97484
1.97593
1.97738
1.97917
1.98128
1.98367
1.9863
1.98915
1.99204
1.99509
167.604
224.695
206.774
198.746
195.19
192.798
190.069
186.286
181.158
174.669
166.997
158.456
149.46
140.463
131.897
124.106
117.303
111.568
106.865
103.082
100.068
97.6615
95.7086
94.0755
92.6524
91.3543
90.1195
88.9068
87.692
86.4645
85.2244
83.9792
82.7417
81.5276
80.3542
79.2386
78.1975
77.2457
76.3963
75.6603
75.0466
74.5617
74.2102
73.9947
73.9161
73.9737
74.1652
74.4795
74.9035
75.4262
76.0375
76.7276
77.4865
78.3046
79.1721
80.0796
81.0182
81.9793
82.9554
83.9394
84.9253
85.9078
86.8822
87.8444
88.7905
89.7163
90.6168
91.4858
92.3146
93.0919
93.8025
94.4267
94.9392
95.3092
95.4997
95.4678
95.1654
94.5401
93.5373
92.1
90.2234
87.9461
85.2796
82.2565
78.9308
75.3756
71.6798
67.9415
64.2609
60.7312
57.4317
54.4209
51.7344
49.3844
47.3624
45.6436
44.1912
42.9607
41.9025
40.9649
40.0949
39.2358
38.3353
37.3471
36.2334
34.9671
33.5333
31.9291
30.1619
28.2442
26.1878
24.0007
21.6915
19.2828
16.8263
14.4046
12.1171
10.0546
8.27784
6.80918
5.63665
4.7257
4.03168
3.5094
3.11872
2.82677
2.60808
2.44354
2.31917
2.2248
2.15303
2.09845
2.05703
2.02573
2.00222
1.98472
1.97181
1.96241
1.95565
1.95086
1.94749
1.94511
1.94343
1.9422
1.94127
1.94053
1.9399
1.93933
1.9388
1.93826
1.93771
1.93712
1.93648
1.9358
1.93509
1.93434
1.93359
1.93286
1.93215
1.93148
1.93087
1.9303
1.92977
1.92929
1.92887
1.92852
1.92828
1.92818
1.92825
1.92855
1.9291
1.92993
1.93105
1.93244
1.93408
1.93593
1.93796
1.94014
1.94233
1.94468
788.182
297.579
221.257
203.275
197.191
193.502
189.447
184.072
177.152
168.857
159.594
149.883
140.255
131.175
122.98
115.865
109.886
104.987
101.047
97.9063
95.3989
93.3684
91.6777
90.2137
88.8873
87.6321
86.4021
85.1684
83.916
82.641
81.3478
80.0463
78.7507
77.4768
76.2414
75.061
73.9512
72.9258
71.997
71.1749
70.4676
69.8812
69.4199
69.0862
68.8811
68.8039
68.8529
69.0162
69.2808
69.6359
70.0719
70.5799
71.151
71.7767
72.4488
73.1595
73.9015
74.6683
75.4543
76.2546
77.0655
77.8841
78.7084
79.5369
80.3686
81.2023
82.0362
82.8668
83.6887
84.4933
85.2679
85.9943
86.6484
87.1986
87.6062
87.8241
87.7984
87.4688
86.7712
85.6407
84.077
82.0731
79.6349
76.7905
73.5934
70.1212
66.4725
62.7595
59.0992
55.6027
52.3645
49.4545
46.9133
44.7526
42.9582
41.4961
40.319
39.3716
38.5948
37.9295
37.3179
36.6994
36.0196
35.2321
34.3003
33.1993
31.9165
30.4523
28.817
27.0275
25.101
23.0517
20.894
18.652
16.3714
14.1223
11.9886
10.0489
8.35883
6.94209
5.79303
4.88511
4.18119
3.64205
3.23167
2.91975
2.68224
2.50071
2.36141
2.25414
2.17135
2.10744
2.05816
2.02027
1.99126
1.96917
1.95243
1.93983
1.93041
1.9234
1.91817
1.91423
1.91123
1.90888
1.907
1.90545
1.90412
1.90295
1.90189
1.9009
1.89996
1.89903
1.89812
1.89721
1.8963
1.89539
1.89451
1.89365
1.89284
1.89208
1.89138
1.89073
1.89013
1.88959
1.8891
1.88868
1.88835
1.88815
1.88809
1.88821
1.88856
1.88913
1.88993
1.89094
1.89216
1.89354
1.89504
1.89666
1.89828
1.90005
795.714
306.549
222.515
201.597
194.34
189.962
185.234
179.082
171.316
162.217
152.325
142.27
132.628
123.839
116.16
109.683
104.367
100.087
96.6791
93.9676
91.7871
89.9916
88.4592
87.0926
85.8179
84.5815
83.3477
82.0956
80.8161
79.509
78.1812
76.844
75.5116
74.1999
72.9249
71.7023
70.5466
69.4708
68.4862
67.6019
66.8255
66.1625
65.6167
65.1905
64.8848
64.6991
64.632
64.6713
64.8043
65.0207
65.3115
65.6686
66.0842
66.5512
67.0628
67.6127
68.1955
68.8062
69.441
70.0971
70.7726
71.4666
72.1791
72.911
73.6634
74.4375
75.2339
76.0516
76.8879
77.7365
78.5869
79.4227
80.2206
80.9489
81.5671
82.0242
82.2606
82.2074
81.7897
80.9487
79.6533
77.8782
75.6183
72.8946
69.7583
66.291
62.6012
58.817
55.0751
51.5074
48.2276
45.3197
42.8321
40.7765
39.1333
37.8586
36.8933
36.1705
35.6214
35.1787
34.7797
34.3601
33.8636
33.2441
32.4665
31.5078
30.3583
29.0207
27.5082
25.8404
24.0381
22.12
20.1044
18.0167
15.8984
13.8097
11.822
10.0032
8.40281
7.04462
5.92722
5.03047
4.32379
3.7735
3.34769
3.01883
2.76453
2.56728
2.41377
2.29392
2.20019
2.12684
2.06949
2.02474
1.98992
1.96291
1.94203
1.92594
1.91357
1.90407
1.89674
1.89103
1.8865
1.88287
1.87988
1.87737
1.87521
1.87333
1.87164
1.87011
1.86869
1.86737
1.8661
1.86489
1.86373
1.86261
1.86154
1.86052
1.85956
1.85867
1.85784
1.85708
1.85638
1.85574
1.85515
1.85464
1.85421
1.85389
1.85369
1.85365
1.85379
1.85411
1.85462
1.8553
1.85614
1.85711
1.85817
1.85933
1.8605
1.8618
781.794
302.047
217.203
195.562
187.963
183.442
178.631
172.402
164.567
155.443
145.62
135.764
126.463
118.129
110.976
105.037
100.227
96.3904
93.3479
90.9225
88.9551
87.3105
85.8789
84.5746
83.3338
82.1118
80.8794
79.6207
78.33
77.0094
75.6667
74.3138
72.9649
71.6351
70.34
69.0942
67.9114
66.8037
65.7815
64.8533
64.026
63.3045
62.6924
62.1918
61.8035
61.5274
61.3623
61.2964
61.3172
61.4153
61.5824
61.8113
62.0954
62.4289
62.8065
63.2234
63.6757
64.1603
64.6748
65.2181
65.7899
66.3908
67.0225
67.6875
68.3886
69.1288
69.9104
70.7348
71.6009
72.5047
73.4378
74.3856
75.3254
76.2259
77.0451
77.7285
78.2111
78.4152
78.2603
77.6805
76.6209
75.0401
72.9198
70.272
67.1444
63.6218
59.8228
55.8924
51.989
48.2685
44.8666
41.8842
39.3788
37.3632
35.8115
34.6692
33.8644
33.3182
32.9511
32.6882
32.4616
32.2039
31.8575
31.3767
30.7283
29.8918
28.8597
27.6371
26.2392
24.6873
23.0044
21.212
19.331
17.3874
15.4196
13.48
11.6299
9.92771
8.41726
7.12129
6.04122
5.16195
4.45848
3.90214
3.46497
3.1222
2.85328
2.64178
2.47498
2.34309
2.23863
2.15586
2.09032
2.0385
1.9976
1.9654
1.94009
1.92022
1.90464
1.89241
1.88275
1.87505
1.86883
1.86373
1.85949
1.85591
1.85282
1.85013
1.84774
1.8456
1.84365
1.84186
1.8402
1.83865
1.83719
1.83581
1.83452
1.83331
1.83218
1.83113
1.83017
1.82927
1.82845
1.8277
1.82701
1.82639
1.82585
1.82541
1.82508
1.82488
1.82483
1.82493
1.82519
1.82559
1.82611
1.82673
1.82744
1.82821
1.82902
1.82996
834.23
299.759
208.793
186.594
179.18
174.991
170.594
164.84
157.519
148.93
139.649
130.335
121.566
113.746
107.07
101.562
97.122
93.5924
90.7945
88.5571
86.7291
85.1843
83.8217
82.5638
81.3534
80.1508
78.9312
77.6811
76.3968
75.0811
73.7425
72.3925
71.0449
69.7141
68.415
67.1615
65.9663
64.8407
63.7945
62.8355
61.97
61.2024
60.5362
59.9731
59.5141
59.1593
58.9078
58.7485
58.67
58.6636
58.7218
58.8386
59.0085
59.2271
59.4904
59.7954
60.1395
60.5212
60.9396
61.3948
61.8878
62.4204
62.9956
63.6168
64.2882
65.0141
65.7981
66.6431
67.5496
68.5152
69.5337
70.5921
71.6686
72.7319
73.7404
74.6343
75.346
75.7867
75.8751
75.5309
74.6803
73.2649
71.2523
68.6443
65.4841
61.859
57.8981
53.7642
49.6394
45.7055
42.1228
39.011
36.4376
34.416
32.9133
31.8633
31.1804
30.7729
30.5511
30.4326
30.3443
30.2166
29.9913
29.624
29.0833
28.3513
27.4229
26.305
25.0143
23.5729
22.0048
20.333
18.5798
16.7716
14.9438
13.1429
11.4217
9.83065
8.40842
7.17615
6.13706
5.27997
4.58458
4.02664
3.58183
3.22812
2.94679
2.72263
2.5436
2.40032
2.2855
2.19345
2.11968
2.06064
2.01345
1.9758
1.94578
1.92187
1.90282
1.88762
1.87541
1.86552
1.85744
1.85074
1.84513
1.84036
1.83626
1.83269
1.82954
1.82674
1.82422
1.82193
1.81985
1.81793
1.81615
1.8145
1.81297
1.81155
1.81024
1.80903
1.80792
1.80689
1.80594
1.80508
1.80428
1.80356
1.80292
1.80237
1.80191
1.80158
1.80137
1.80129
1.80133
1.80149
1.80175
1.8021
1.80252
1.803
1.80352
1.80417
180.727
205.992
183.408
172.855
168.178
165.102
161.576
156.721
150.34
142.687
134.283
125.744
117.631
110.348
104.104
98.9364
94.7637
91.4408
88.8013
86.6838
84.9461
83.4692
82.1585
80.9412
79.7641
78.5905
77.3972
76.1721
74.9117
73.6191
72.3022
70.972
69.6415
68.3247
67.0352
65.7863
64.59
63.4569
62.3961
61.4148
60.5189
59.7125
58.9986
58.3791
57.8551
57.4275
57.0967
56.852
56.683
56.5818
56.5419
56.5584
56.6272
56.7452
56.91
57.1199
57.3738
57.6715
58.0135
58.4008
58.8354
59.3201
59.8584
60.4547
61.1139
61.8411
62.6412
63.5179
64.4726
65.5046
66.6095
67.7767
68.984
70.2004
71.3873
72.4757
73.3934
74.0563
74.3712
74.2417
73.5769
72.3018
70.3686
67.7684
64.5393
60.7711
56.604
52.2198
47.8261
43.633
39.8271
36.548
33.8728
31.8149
30.3328
29.3466
28.7565
28.4575
28.35
28.3455
28.3687
28.3467
28.2208
27.9478
27.4987
26.8583
26.0238
25.0037
23.8154
22.4813
21.0257
19.4717
17.8423
16.1638
14.469
12.7993
11.2006
9.7166
8.38108
7.21348
6.21815
5.387
4.70369
4.14792
3.69873
3.33669
3.04496
2.80957
2.6193
2.46523
2.34034
2.23907
2.15698
2.09052
2.03676
1.99335
1.95831
1.93004
1.90722
1.88876
1.87376
1.86149
1.85136
1.84291
1.83581
1.82976
1.82457
1.82006
1.8161
1.81261
1.80949
1.80669
1.80417
1.80187
1.79977
1.79785
1.79608
1.79446
1.79297
1.7916
1.79035
1.7892
1.78814
1.78718
1.78629
1.78548
1.78476
1.78411
1.78357
1.78313
1.78279
1.78257
1.78245
1.78243
1.7825
1.78264
1.78284
1.78311
1.78343
1.78386
172.595
178.014
167.094
160.902
157.93
155.878
153.303
149.468
144.165
137.576
130.145
122.429
114.965
108.16
102.251
97.31
93.2883
90.0663
87.4957
85.4278
83.7281
82.2832
81.0019
79.8137
78.6666
77.5244
76.3641
75.173
73.9472
72.6888
71.4047
70.1052
68.8022
67.5086
66.2374
65.001
63.8107
62.6767
61.6072
60.6093
59.6882
58.8478
58.0907
57.4188
56.8334
56.3358
55.9277
55.5995
55.3425
55.1498
55.0163
54.9383
54.913
54.9385
55.0141
55.1392
55.3143
55.5402
55.8185
56.1511
56.5406
56.9905
57.5047
58.088
58.7457
59.4836
60.3074
61.2217
62.2277
63.3262
64.5144
65.7861
67.1156
68.4714
69.8123
71.0778
72.1918
73.0624
73.5851
73.6493
73.147
71.986
70.1031
67.4779
64.1433
60.1926
55.7783
51.1036
46.4041
41.9204
37.8673
34.4039
31.6161
29.5142
28.0454
27.1145
26.6057
26.4007
26.3904
26.4815
26.5977
26.6626
26.6179
26.4224
26.0502
25.4885
24.7369
23.805
22.7105
21.4755
20.1236
18.6779
17.1615
15.5999
14.0242
12.4717
10.9828
9.59587
8.34052
7.23447
6.28262
5.47913
4.81078
4.26048
3.81016
3.44271
3.14304
2.89841
2.69841
2.53465
2.40043
2.2904
2.20023
2.12641
2.06604
2.01673
1.97648
1.94365
1.91686
1.89496
1.87699
1.86217
1.84986
1.83957
1.83088
1.8235
1.81716
1.81167
1.80689
1.80268
1.79896
1.79565
1.79268
1.79001
1.78759
1.7854
1.7834
1.78158
1.77992
1.77841
1.77702
1.77576
1.7746
1.77355
1.77258
1.7717
1.7709
1.77019
1.76957
1.76904
1.76861
1.76828
1.76803
1.76787
1.76779
1.76777
1.76782
1.76793
1.76809
1.76836
177.385
162.021
154.463
150.635
148.954
147.84
146.183
143.342
139.091
133.543
127.06
120.137
113.275
106.889
101.242
96.4481
92.4974
89.3026
86.7374
84.6671
82.9654
81.5232
80.2513
79.0796
77.9559
76.843
75.7167
74.563
73.3765
72.1579
70.9128
69.65
68.3805
67.1161
65.8689
64.6507
63.4722
62.3428
61.2708
60.2627
59.3234
58.4567
57.6651
56.9504
56.3138
55.7568
55.2812
54.8799
54.5458
54.2736
54.0595
53.9009
53.7964
53.7454
53.748
53.8051
53.9182
54.089
54.3199
54.6133
54.9724
55.4009
55.9029
56.4834
57.1479
57.9023
58.7533
59.7069
60.7619
61.9209
63.1816
64.5358
65.9648
67.4391
68.9161
70.3352
71.6173
72.664
73.3611
73.5845
73.2108
72.1313
70.2681
67.5898
64.1254
59.9719
55.2954
50.321
45.3124
40.5408
36.2472
32.6083
29.7154
27.5732
26.1159
25.2321
24.7911
24.6622
24.7285
24.8924
25.076
25.203
25.2169
25.0792
24.7665
24.2687
23.5867
22.731
21.719
20.5721
19.3131
17.9643
16.5484
15.0903
13.6194
12.1697
10.7775
9.47651