/*--------------------------------*- C++ -*----------------------------------*\
  =========                 |
  \\      /  F ield         | OpenFOAM: The Open Source CFD Toolbox
   \\    /   O peration     | Website:  https://openfoam.org
    \\  /    A nd           | Version:  9
     \\/     M anipulation  |
\*---------------------------------------------------------------------------*/
FoamFile
{
    format      ascii;
    class       volScalarField;
    location    "0.05";
    object      k;
}
// * * * * * * * * * * * * * * * * * * * * * * * * * * * * * * * * * * * * * //

dimensions      [0 2 -2 0 0 0 0];

internalField   nonuniform List<scalar> 
12225
(
0.266324
0.160277
0.103622
0.0738302
0.0576821
0.0481908
0.0419043
0.0372197
0.0334263
0.0302046
0.0273981
0.0249253
0.0227573
0.0209421
0.0197274
0.0210164
0.0344355
0.148295
0.334404
0.249446
0.19598
0.16401
0.143607
0.129321
0.118385
0.109408
0.101686
0.094839
0.0886391
0.0829434
0.0776925
0.0729894
0.069398
0.0703945
0.0942948
0.242574
0.345095
0.285444
0.239035
0.206039
0.18239
0.16481
0.151103
0.139919
0.130465
0.122272
0.115049
0.108607
0.102852
0.0978867
0.094577
0.0982218
0.132193
0.292643
0.350053
0.304658
0.264969
0.233511
0.209061
0.189892
0.174514
0.16184
0.151143
0.141953
0.133968
0.126999
0.120972
0.116082
0.113564
0.119734
0.160354
0.318944
0.353134
0.31637
0.282137
0.253065
0.229119
0.2095
0.193292
0.179711
0.168168
0.158254
0.149696
0.142336
0.136156
0.131481
0.129865
0.137973
0.18055
0.328523
0.355193
0.324065
0.294142
0.26756
0.244722
0.225342
0.208901
0.194875
0.182828
0.172435
0.163479
0.155849
0.149602
0.145185
0.144349
0.153543
0.194696
0.326453
0.356622
0.329363
0.302822
0.278554
0.257061
0.238311
0.222042
0.207925
0.195658
0.185006
0.175813
0.16803
0.161778
0.157602
0.157305
0.16673
0.204235
0.316893
0.357632
0.333111
0.309221
0.287
0.266894
0.24898
0.233145
0.219195
0.206938
0.196216
0.186936
0.179101
0.172892
0.168907
0.168876
0.177826
0.210441
0.303291
0.35835
0.335796
0.313984
0.293524
0.274747
0.257755
0.242512
0.228914
0.216844
0.20621
0.196971
0.189178
0.18305
0.179194
0.179182
0.187161
0.214421
0.288386
0.358859
0.337726
0.317533
0.298559
0.281004
0.264947
0.250382
0.237256
0.225506
0.215088
0.206002
0.198331
0.192315
0.188533
0.188352
0.19507
0.217075
0.274177
0.359217
0.339107
0.320163
0.302424
0.285958
0.2708
0.256946
0.244367
0.233033
0.22293
0.214088
0.206609
0.200736
0.196994
0.196523
0.201873
0.219085
0.261947
0.359446
0.340005
0.321934
0.305116
0.289518
0.275126
0.261921
0.249879
0.238983
0.229237
0.220685
0.213438
0.207724
0.204005
0.20322
0.207339
0.220747
0.253092
0.359611
0.340662
0.323271
0.307213
0.292372
0.278686
0.266111
0.254621
0.244202
0.234867
0.226666
0.219707
0.2142
0.210534
0.209456
0.212439
0.222549
0.246193
0.359741
0.341182
0.324365
0.308988
0.294866
0.281887
0.269978
0.259098
0.249232
0.24039
0.232621
0.226025
0.220778
0.217189
0.215814
0.217685
0.2248
0.241088
0.359834
0.341565
0.325196
0.310389
0.296909
0.284599
0.273357
0.26312
0.253861
0.245583
0.238324
0.232163
0.227237
0.223771
0.222144
0.223021
0.227605
0.2381
0.359895
0.341821
0.325776
0.31141
0.298461
0.286742
0.276123
0.26652
0.257887
0.250213
0.243516
0.23785
0.233304
0.230022
0.228234
0.228322
0.230938
0.237198
0.359929
0.341973
0.326141
0.312086
0.29954
0.288299
0.278216
0.269186
0.261146
0.254062
0.247932
0.242776
0.23864
0.235597
0.233759
0.233309
0.234543
0.237951
0.359939
0.342043
0.326335
0.312479
0.300208
0.289313
0.279637
0.271063
0.263512
0.25693
0.251292
0.246588
0.242825
0.240021
0.238209
0.237441
0.23781
0.239472
0.359927
0.342039
0.326375
0.312609
0.300475
0.289767
0.280322
0.272017
0.264762
0.258491
0.253159
0.248735
0.245197
0.242528
0.240713
0.239737
0.239591
0.240275
0.359887
0.341926
0.326177
0.312315
0.300084
0.289283
0.279759
0.271391
0.26409
0.257784
0.252421
0.247959
0.244363
0.241601
0.23964
0.238443
0.237969
0.238168
0.359816
0.341676
0.325672
0.311497
0.298921
0.287768
0.277903
0.269219
0.261629
0.255063
0.249462
0.244776
0.240962
0.237977
0.23578
0.234323
0.233554
0.233411
0.359678
0.341149
0.324591
0.309765
0.296506
0.284691
0.274216
0.264986
0.256916
0.249931
0.243962
0.238948
0.234832
0.231562
0.229085
0.227347
0.22629
0.225847
0.359417
0.340128
0.32255
0.30661
0.292272
0.279481
0.26816
0.258217
0.249555
0.242081
0.235705
0.230346
0.225929
0.222385
0.21965
0.217661
0.216353
0.215656
0.358948
0.338294
0.319027
0.301406
0.285573
0.271539
0.259223
0.248504
0.239249
0.231324
0.224604
0.218976
0.21434
0.210607
0.207697
0.205537
0.204054
0.203176
0.358154
0.335196
0.313342
0.29338
0.27566
0.260227
0.246907
0.235497
0.225784
0.217569
0.210674
0.204945
0.200249
0.196475
0.193525
0.191316
0.189768
0.188806
0.356873
0.330134
0.304501
0.281517
0.261632
0.24477
0.230649
0.218823
0.208954
0.200745
0.193951
0.188369
0.183835
0.180214
0.177395
0.175285
0.173802
0.172867
0.354859
0.321843
0.290809
0.264169
0.242128
0.224183
0.209664
0.197948
0.188408
0.180634
0.174309
0.169187
0.165078
0.161832
0.159333
0.157483
0.156201
0.155411
0.351701
0.307637
0.268967
0.238364
0.214759
0.196626
0.182622
0.171746
0.163203
0.156406
0.150988
0.146682
0.143289
0.140659
0.138679
0.137258
0.136321
0.135798
0.344847
0.279861
0.231444
0.197813
0.17435
0.157669
0.145527
0.136501
0.129726
0.124516
0.120503
0.117421
0.115082
0.113352
0.112131
0.111344
0.11093
0.110835
0.299984
0.214119
0.158082
0.121458
0.0974585
0.0816306
0.0710416
0.0637895
0.0587592
0.0552574
0.0527543
0.0509429
0.049639
0.0487253
0.0481234
0.0477781
0.0476475
0.0476955
0.102338
0.140694
0.16297
0.176043
0.18308
0.18595
0.185833
0.183508
0.179502
0.174366
0.170007
0.167301
0.166389
0.167901
0.172757
0.181827
0.19545
0.21299
0.23226
0.250265
0.264703
0.2743
0.279623
0.287728
0.304624
0.329948
0.362248
0.399183
0.43845
0.478263
0.517403
0.555112
0.590965
0.624757
0.656429
0.686013
0.713593
0.739284
0.763219
0.785534
0.806374
0.825881
0.844204
0.8615
0.877937
0.893707
0.909032
0.924182
0.938802
0.952483
0.965311
0.977339
0.98858
0.999028
1.00866
1.01745
1.02536
1.03235
1.03837
1.04339
1.04734
1.05018
1.05185
1.0523
1.05147
1.04931
1.04576
1.04078
1.03431
1.02629
1.0167
1.00549
0.992636
0.978107
0.961902
0.944035
0.924566
0.903669
0.881921
0.861854
0.84834
0.836294
0.823562
0.809674
0.794524
0.778124
0.760538
0.741851
0.722162
0.701573
0.680182
0.658079
0.635338
0.612009
0.588101
0.563562
0.538177
0.511506
0.484154
0.456629
0.428259
0.39871
0.367899
0.33598
0.303367
0.270762
0.23917
0.209803
0.184088
0.171879
0.165417
0.161191
0.160569
0.150417
0.135274
0.118103
0.101269
0.086509
0.0747578
0.0661447
0.0602387
0.0563843
0.0539532
0.0524551
0.0515488
0.0510116
0.0507026
0.0505346
0.0504531
0.0504245
0.0504268
0.0504458
0.0504712
0.0504955
0.0505125
0.050518
0.0505104
0.050494
0.050475
0.0504428
0.0503926
0.0503263
0.0502464
0.0501551
0.0500536
0.0499419
0.0498192
0.049685
0.0495395
0.0493844
0.0492225
0.0490565
0.0488889
0.0487215
0.0485554
0.0483909
0.0482269
0.0480615
0.0478921
0.0477174
0.047538
0.0473557
0.0471729
0.0469916
0.0468126
0.0466364
0.0464627
0.0462902
0.0461161
0.0459375
0.0457572
0.045575
0.0453877
0.0451955
0.0450004
0.0448083
0.0446329
0.0444926
0.0443838
0.0442313
0.211497
0.271972
0.306516
0.326273
0.336578
0.34112
0.342538
0.342871
0.343911
0.347731
0.355351
0.367535
0.387095
0.417054
0.459417
0.514673
0.581394
0.657128
0.732094
0.796267
0.84751
0.884687
0.908095
0.919644
0.92256
0.920549
0.916942
0.91419
0.913876
0.916973
0.924012
0.935189
0.950427
0.969445
0.991818
1.01704
1.04458
1.07391
1.10456
1.1361
1.1682
1.20055
1.23296
1.26526
1.29732
1.32907
1.36046
1.39123
1.4213
1.45123
1.48104
1.51065
1.53998
1.56893
1.59738
1.62522
1.65233
1.67855
1.70375
1.72778
1.75047
1.77166
1.79119
1.80888
1.82456
1.83803
1.84912
1.85766
1.86345
1.86632
1.8661
1.86261
1.85572
1.84526
1.83113
1.81322
1.79147
1.76583
1.73623
1.7024
1.66527
1.6268
1.58613
1.5431
1.49782
1.4505
1.40145
1.35098
1.29942
1.24712
1.19438
1.1415
1.08876
1.03636
0.984491
0.933235
0.882579
0.832212
0.780397
0.727918
0.675799
0.624704
0.575467
0.528963
0.485916
0.446703
0.411211
0.37848
0.346297
0.313037
0.284243
0.259613
0.237532
0.214364
0.190264
0.166574
0.144622
0.125414
0.109537
0.0971239
0.0879159
0.081406
0.0769951
0.0741154
0.0722992
0.0711963
0.0705617
0.0702304
0.0700938
0.0700806
0.0701436
0.070251
0.0703808
0.0705171
0.0706484
0.0707662
0.0708657
0.0709458
0.0710079
0.0710507
0.0710716
0.0710719
0.0710541
0.0710203
0.0709721
0.0709102
0.0708349
0.0707465
0.0706457
0.0705342
0.0704145
0.0702892
0.0701606
0.0700307
0.0699008
0.069771
0.0696411
0.0695096
0.069375
0.0692365
0.0690943
0.0689502
0.0688059
0.0686632
0.0685232
0.0683863
0.0682522
0.0681198
0.0679872
0.0678517
0.0677119
0.0675688
0.0674214
0.0672705
0.0671189
0.0669729
0.0668455
0.0667566
0.0666996
0.0666065
0.297148
0.360189
0.401107
0.426981
0.443037
0.453373
0.461417
0.470338
0.483445
0.503414
0.529854
0.565668
0.614448
0.679429
0.756185
0.840483
0.925172
1.00178
1.06208
1.10082
1.11752
1.11549
1.1005
1.07922
1.05771
1.04049
1.0303
1.02836
1.03474
1.04884
1.06962
1.09583
1.12615
1.15932
1.1942
1.22987
1.26567
1.30116
1.3361
1.37043
1.40417
1.43744
1.47036
1.50307
1.53565
1.56822
1.60081
1.63338
1.66623
1.69937
1.73274
1.76623
1.79972
1.83306
1.86612
1.89871
1.93069
1.96185
1.99203
2.02101
2.0486
2.07459
2.09877
2.1209
2.14078
2.15817
2.17284
2.18456
2.1931
2.19824
2.19976
2.19743
2.19107
2.18047
2.16547
2.14593
2.12173
2.09274
2.0588
2.01958
1.97493
1.92788
1.87805
1.82546
1.7703
1.71289
1.65362
1.59291
1.5312
1.46893
1.40652
1.34434
1.28275
1.22203
1.16243
1.10409
1.04708
0.991296
0.936263
0.881046
0.82575
0.770378
0.715173
0.660735
0.608034
0.558242
0.512361
0.470636
0.432301
0.396556
0.363105
0.331034
0.299341
0.26742
0.235928
0.206118
0.179139
0.155761
0.136342
0.120871
0.109045
0.100366
0.0942389
0.0900685
0.0873252
0.0855828
0.0845228
0.0839193
0.0836174
0.0835123
0.0835333
0.0836322
0.0837758
0.0839403
0.0841087
0.0842687
0.0844119
0.0845335
0.0846315
0.0847063
0.0847565
0.0847831
0.0847884
0.0847745
0.0847433
0.0846963
0.0846343
0.084558
0.0844685
0.0843671
0.084256
0.0841377
0.0840144
0.0838883
0.0837608
0.0836328
0.0835042
0.0833746
0.0832428
0.0831082
0.0829707
0.0828315
0.0826922
0.0825543
0.0824192
0.0822875
0.0821594
0.0820344
0.0819113
0.0817883
0.0816637
0.0815364
0.0814066
0.0812756
0.0811466
0.0810255
0.0809236
0.0808612
0.0808373
0.0808365
0.378556
0.450874
0.503201
0.538063
0.561653
0.579294
0.595849
0.616306
0.645079
0.680481
0.725317
0.781308
0.84859
0.924805
1.00422
1.07921
1.14162
1.18473
1.20516
1.204
1.1864
1.15982
1.13185
1.10864
1.09409
1.08996
1.09626
1.11191
1.1352
1.16426
1.19727
1.23263
1.26902
1.30544
1.34123
1.37598
1.40955
1.44197
1.47342
1.50412
1.53435
1.56436
1.59438
1.62459
1.65511
1.68601
1.71731
1.74905
1.78136
1.81421
1.84753
1.88118
1.91502
1.9489
1.98263
2.01604
2.04894
2.08112
2.11238
2.14249
2.17124
2.1984
2.22374
2.24701
2.26799
2.28642
2.30206
2.31467
2.324
2.3298
2.33183
2.32986
2.32366
2.31303
2.29776
2.27769
2.25263
2.22244
2.18688
2.14565
2.09827
2.04779
1.9943
1.9379
1.87887
1.81759
1.75452
1.69013
1.62494
1.55941
1.49404
1.42923
1.36538
1.3028
1.24174
1.18236
1.12472
1.06874
1.0141
0.960115
0.906332
0.852513
0.798521
0.744467
0.690832
0.638468
0.588405
0.541427
0.497724
0.457108
0.419146
0.382885
0.34713
0.31119
0.275521
0.241429
0.210305
0.18313
0.160348
0.141952
0.127619
0.11683
0.108977
0.103441
0.0996526
0.0971345
0.0955125
0.0945097
0.0939288
0.0936324
0.0935254
0.0935419
0.0936359
0.0937746
0.0939342
0.0940974
0.0942519
0.0943891
0.0945036
0.0945948
0.094661
0.0947028
0.0947217
0.0947198
0.0946991
0.0946612
0.0946075
0.094539
0.0944566
0.0943617
0.094256
0.0941417
0.0940211
0.0938962
0.0937688
0.0936401
0.0935107
0.0933806
0.0932492
0.0931159
0.0929805
0.0928436
0.0927065
0.0925705
0.0924372
0.0923074
0.0921819
0.0920607
0.0919434
0.0918288
0.0917153
0.0916009
0.0914858
0.0913715
0.0912605
0.0911579
0.0910731
0.0910242
0.0910137
0.0910468
0.460185
0.551602
0.620102
0.66733
0.701132
0.728407
0.755448
0.787276
0.822934
0.865719
0.917005
0.976044
1.03988
1.10353
1.16056
1.20454
1.23067
1.2373
1.22662
1.20414
1.17705
1.15229
1.135
1.12799
1.13193
1.14592
1.16821
1.19672
1.22939
1.26443
1.30037
1.3361
1.37085
1.40416
1.43584
1.4659
1.49453
1.522
1.54865
1.57481
1.6008
1.62688
1.65328
1.68016
1.7076
1.73565
1.76428
1.79358
1.82362
1.85435
1.88568
1.91747
1.94958
1.98182
2.01402
2.04599
2.07752
2.10842
2.13845
2.16741
2.19507
2.2212
2.24557
2.26795
2.2881
2.30578
2.32075
2.33277
2.34159
2.34698
2.34868
2.34647
2.3401
2.32937
2.31406
2.29397
2.26891
2.2387
2.20311
2.16187
2.11454
2.06368
2.00977
1.953
1.89367
1.8322
1.7691
1.70487
1.64006
1.57518
1.51073
1.44716
1.38483
1.32408
1.26513
1.20812
1.15308
1.0999
1.04829
0.99765
0.94733
0.897002
0.846354
0.795231
0.743764
0.692439
0.64203
0.593363
0.547029
0.503334
0.462218
0.423039
0.384727
0.346475
0.308436
0.271705
0.237709
0.207609
0.182029
0.161074
0.144467
0.131706
0.122181
0.115264
0.110368
0.106982
0.104695
0.103191
0.102236
0.101663
0.101353
0.101223
0.101212
0.101278
0.101389
0.101522
0.10166
0.101791
0.101905
0.101999
0.102071
0.102119
0.102146
0.102151
0.102137
0.102106
0.102059
0.101997
0.101921
0.101832
0.101732
0.101623
0.101506
0.101384
0.101258
0.101131
0.101003
0.100874
0.100744
0.100614
0.100482
0.100349
0.100215
0.100083
0.0999525
0.0998258
0.0997038
0.099587
0.0994754
0.0993683
0.0992644
0.0991614
0.0990592
0.0989586
0.0988617
0.0987723
0.0986976
0.0986527
0.0986407
0.0986766
0.539171
0.655987
0.746136
0.809692
0.855987
0.893382
0.927643
0.959448
0.993568
1.03239
1.07591
1.12185
1.16616
1.20394
1.23053
1.24282
1.24036
1.22568
1.2038
1.1808
1.16229
1.15217
1.15223
1.1624
1.18136
1.20717
1.23774
1.27117
1.30583
1.34045
1.37412
1.40623
1.43645
1.4647
1.49108
1.51581
1.53921
1.56163
1.58345
1.605
1.62659
1.64847
1.67084
1.69384
1.71753
1.74196
1.76708
1.79299
1.81971
1.8472
1.87535
1.90402
1.93307
1.96232
1.99158
2.02066
2.04937
2.0775
2.10484
2.13118
2.1563
2.17999
2.20204
2.22222
2.24032
2.25612
2.26939
2.27991
2.28746
2.29179
2.29269
2.28991
2.28323
2.27243
2.25729
2.23758
2.21313
2.18371
2.14912
2.1091
2.06331
2.01387
1.96148
1.90633
1.84879
1.7893
1.72838
1.66658
1.60448
1.54261
1.48147
1.4215
1.36308
1.30649
1.25192
1.19946
1.1491
1.10066
1.05382
1.00801
0.962467
0.916805
0.870611
0.823579
0.775624
0.72697
0.678159
0.629925
0.582998
0.537966
0.495088
0.454066
0.414118
0.374511
0.335209
0.297041
0.261306
0.229213
0.20153
0.178499
0.159941
0.145409
0.134321
0.12606
0.120037
0.115728
0.112701
0.110612
0.109201
0.108274
0.107692
0.107353
0.107184
0.10713
0.107153
0.107221
0.107314
0.107414
0.107508
0.107589
0.107654
0.1077
0.107726
0.107732
0.107721
0.107693
0.107649
0.107592
0.107521
0.107437
0.107343
0.107239
0.107127
0.107009
0.106887
0.106763
0.106637
0.106512
0.106386
0.10626
0.106132
0.106005
0.105876
0.105749
0.105623
0.105502
0.105384
0.105273
0.105167
0.105067
0.104971
0.104878
0.104786
0.104697
0.10461
0.10453
0.10446
0.104413
0.104392
0.104418
0.593882
0.750301
0.871201
0.954961
1.01424
1.05715
1.08812
1.11392
1.13875
1.16443
1.19052
1.21475
1.23385
1.24474
1.24554
1.23642
1.2198
1.19983
1.1813
1.16844
1.16402
1.16905
1.18304
1.20455
1.23167
1.26247
1.29522
1.32848
1.36115
1.39243
1.42182
1.44907
1.47413
1.49712
1.51827
1.5379
1.55635
1.574
1.5912
1.60827
1.6255
1.64312
1.66131
1.68019
1.69984
1.72028
1.74147
1.7635
1.78638
1.81003
1.83436
1.85924
1.88451
1.91
1.93554
1.96093
1.98599
2.01052
2.03432
2.05721
2.07897
2.09943
2.11839
2.13565
2.15103
2.16432
2.17534
2.18389
2.18976
2.19275
2.19263
2.18918
2.18219
2.17142
2.15666
2.13766
2.11422
2.08612
2.05315
2.01506
1.97156
1.92452
1.87463
1.82214
1.76741
1.71094
1.65329
1.59505
1.53682
1.47915
1.42257
1.3675
1.31429
1.26318
1.21431
1.16769
1.12324
1.0807
1.0397
0.99963
0.959691
0.919409
0.878304
0.835973
0.792196
0.747031
0.700845
0.654268
0.60806
0.562956
0.519441
0.477524
0.436727
0.396482
0.356679
0.317925
0.281334
0.248064
0.218952
0.194359
0.174218
0.158162
0.145663
0.136136
0.129006
0.123755
0.119941
0.117207
0.115272
0.113924
0.113007
0.112401
0.112022
0.111803
0.111698
0.111668
0.111685
0.111728
0.111781
0.111832
0.111876
0.111906
0.111922
0.111922
0.111906
0.111876
0.111832
0.111775
0.111706
0.111626
0.111535
0.111435
0.111328
0.111214
0.111096
0.110976
0.110854
0.110733
0.110612
0.11049
0.110369
0.110247
0.110125
0.110003
0.109884
0.109767
0.109656
0.109549
0.10945
0.109356
0.109267
0.109182
0.109098
0.109017
0.108937
0.108862
0.108794
0.108743
0.10871
0.108722
0.53848
0.804808
0.978955
1.08823
1.15649
1.19815
1.22373
1.23998
1.2511
1.25917
1.26444
1.26586
1.262
1.25205
1.23656
1.2176
1.19842
1.18264
1.1733
1.17225
1.17994
1.19566
1.21793
1.24497
1.27499
1.30643
1.33796
1.3686
1.39763
1.4246
1.44928
1.47162
1.49173
1.50983
1.52619
1.54116
1.5551
1.56834
1.58124
1.59409
1.60716
1.62065
1.63474
1.64953
1.66512
1.68152
1.69871
1.71674
1.73561
1.75525
1.77555
1.79639
1.81761
1.83906
1.86056
1.88194
1.90301
1.92361
1.94355
1.96265
1.98074
1.99766
2.01325
2.02733
2.03975
2.05034
2.05896
2.06541
2.06954
2.07115
2.07004
2.06601
2.05883
2.04828
2.03412
2.0161
1.99398
1.96752
1.9365
1.90066
1.85975
1.8155
1.76847
1.71891
1.66725
1.61402
1.55985
1.50537
1.45123
1.39804
1.34634
1.29655
1.24899
1.20386
1.16122
1.121
1.083
1.04691
1.01225
0.978357
0.944412
0.909845
0.874114
0.836752
0.797453
0.756168
0.71315
0.668944
0.624297
0.580015
0.536739
0.494713
0.453736
0.413425
0.373677
0.334945
0.298156
0.264367
0.234419
0.208753
0.187402
0.170092
0.156364
0.14568
0.137498
0.131315
0.126696
0.123278
0.120771
0.11895
0.117644
0.116722
0.116086
0.115661
0.115389
0.115227
0.115139
0.115101
0.11509
0.115093
0.115098
0.115101
0.115095
0.115078
0.11505
0.115011
0.11496
0.114899
0.114828
0.114747
0.114657
0.114559
0.114454
0.114343
0.114229
0.114112
0.113994
0.113876
0.113759
0.113643
0.113526
0.11341
0.113294
0.113179
0.113066
0.112955
0.112849
0.112748
0.112653
0.112565
0.112482
0.112402
0.112325
0.112249
0.112174
0.112102
0.112034
0.111977
0.111934
0.111932
0.564632
0.878561
1.08042
1.19909
1.2696
1.30949
1.32895
1.33467
1.33128
1.32176
1.30775
1.29002
1.26917
1.24629
1.22326
1.20261
1.187
1.17856
1.17844
1.18667
1.20239
1.22411
1.25015
1.27884
1.30869
1.33848
1.36727
1.39437
1.41935
1.44196
1.46214
1.47997
1.49563
1.50936
1.52148
1.53232
1.54222
1.55152
1.56052
1.56951
1.57872
1.58837
1.59861
1.60956
1.62128
1.63382
1.64716
1.66134
1.67632
1.69204
1.70839
1.72524
1.74247
1.75991
1.77741
1.79481
1.81193
1.82863
1.84473
1.8601
1.87458
1.88804
1.90033
1.91133
1.92091
1.92894
1.9353
1.93984
1.94241
1.94286
1.941
1.93664
1.92954
1.91948
1.90619
1.88941
1.86886
1.84427
1.81536
1.78188
1.74358
1.70215
1.65785
1.61102
1.56211
1.51173
1.46057
1.40936
1.35882
1.30963
1.26239
1.21753
1.17536
1.13603
1.09951
1.06564
1.03411
1.0045
0.976213
0.948543
0.920617
0.891783
0.861437
0.829058
0.794288
0.757014
0.717415
0.675976
0.633423
0.590589
0.548212
0.506713
0.46611
0.426205
0.386939
0.348672
0.312172
0.278374
0.248082
0.221775
0.199569
0.181275
0.166513
0.154804
0.145648
0.138572
0.133153
0.129035
0.125927
0.123595
0.12186
0.120581
0.119649
0.11898
0.118508
0.118183
0.117964
0.117819
0.117723
0.117657
0.117609
0.117568
0.117528
0.117485
0.117435
0.117379
0.117315
0.117244
0.117165
0.117079
0.116986
0.116886
0.116781
0.116671
0.116558
0.116443
0.116328
0.116213
0.1161
0.115987
0.115875
0.115764
0.115653
0.115544
0.115436
0.115331
0.115229
0.115133
0.115043
0.114959
0.114879
0.114804
0.11473
0.114658
0.114587
0.114516
0.114447
0.114385
0.114334
0.114319
0.696525
0.969564
1.1622
1.2796
1.35055
1.38875
1.4029
1.39948
1.38368
1.35968
1.33073
1.29945
1.2681
1.23893
1.21421
1.196
1.1858
1.18426
1.19111
1.20534
1.22546
1.24981
1.27678
1.30493
1.33306
1.36024
1.38579
1.40923
1.43031
1.44892
1.4651
1.47897
1.49075
1.50071
1.50917
1.51643
1.52282
1.52866
1.53423
1.53979
1.54558
1.55177
1.55853
1.56597
1.57417
1.58316
1.59295
1.60355
1.61492
1.62697
1.63962
1.65275
1.66622
1.6799
1.69365
1.70731
1.72075
1.73381
1.74637
1.7583
1.76948
1.77979
1.78912
1.79739
1.8045
1.81034
1.81482
1.81783
1.81924
1.81892
1.8167
1.81237
1.80573
1.79651
1.78443
1.76919
1.75046
1.72791
1.70121
1.67004
1.63439
1.59552
1.5536
1.50897
1.46216
1.41385
1.36481
1.31589
1.26795
1.22177
1.17803
1.13722
1.09965
1.06543
1.03444
1.00643
0.980947
0.957445
0.93523
0.9135
0.891338
0.868005
0.842835
0.815262
0.784896
0.751583
0.715464
0.676982
0.63684
0.595878
0.55489
0.514415
0.474643
0.435532
0.397089
0.35962
0.323768
0.290348
0.260103
0.233522
0.210776
0.191757
0.176158
0.163566
0.153533
0.14562
0.139428
0.134615
0.130893
0.128029
0.125837
0.12417
0.12291
0.121966
0.121266
0.12075
0.120374
0.1201
0.119898
0.119747
0.119628
0.11953
0.119444
0.119362
0.119282
0.1192
0.119116
0.119028
0.118936
0.118839
0.118739
0.118634
0.118525
0.118413
0.1183
0.118185
0.118071
0.117958
0.117846
0.117736
0.117627
0.117519
0.117413
0.117308
0.117205
0.117104
0.117008
0.116915
0.116829
0.116748
0.116671
0.116598
0.116527
0.116458
0.116388
0.116318
0.116248
0.116183
0.116125
0.116099
0.645548
0.993786
1.20056
1.32412
1.39836
1.43669
1.44771
1.4381
1.41372
1.37986
1.34126
1.30199
1.26548
1.23449
1.21112
1.19664
1.19144
1.19508
1.20642
1.22395
1.24597
1.27087
1.29721
1.32376
1.34957
1.3739
1.39626
1.41632
1.43392
1.44905
1.46179
1.47231
1.48084
1.48764
1.49301
1.49726
1.50068
1.50357
1.5062
1.50881
1.51162
1.5148
1.5185
1.52284
1.5279
1.53372
1.54031
1.54768
1.55576
1.56449
1.57377
1.58349
1.59355
1.60381
1.61415
1.62445
1.63457
1.6444
1.65383
1.66274
1.67106
1.67869
1.68555
1.69158
1.6967
1.70086
1.70397
1.70595
1.7067
1.70609
1.70397
1.70014
1.69437
1.68639
1.67588
1.66249
1.64583
1.6255
1.6011
1.57221
1.53915
1.50254
1.46253
1.4195
1.374
1.3268
1.2788
1.23098
1.18437
1.13991
1.0984
1.06043
1.02635
0.996222
0.969871
0.946908
0.926768
0.908749
0.892041
0.875743
0.858883
0.840637
0.820274
0.797191
0.770975
0.741454
0.708746
0.673271
0.635709
0.596895
0.557645
0.518575
0.479999
0.441999
0.40465
0.368232
0.333292
0.300538
0.270644
0.244087
0.221074
0.201563
0.185316
0.171988
0.161183
0.152504
0.145584
0.140096
0.135765
0.13236
0.129695
0.127618
0.126007
0.124765
0.123811
0.123082
0.122527
0.122103
0.121778
0.121523
0.121319
0.12115
0.121005
0.120875
0.120754
0.120639
0.120527
0.120416
0.120306
0.120194
0.120082
0.119968
0.119852
0.119736
0.119619
0.119503
0.119387
0.119274
0.119162
0.119053
0.118947
0.118842
0.118738
0.118637
0.118537
0.11844
0.118347
0.118258
0.118174
0.118095
0.118021
0.117949
0.11788
0.117812
0.117743
0.117674
0.117604
0.117537
0.117474
0.11744
0.596731
0.973541
1.20382
1.33764
1.41664
1.45677
1.46723
1.45502
1.42646
1.38768
1.34443
1.3018
1.26388
1.23361
1.21272
1.20179
1.20039
1.2074
1.22125
1.24021
1.2626
1.28693
1.3119
1.33648
1.35988
1.38152
1.40101
1.41814
1.4328
1.44504
1.45496
1.46273
1.4686
1.47283
1.47569
1.47747
1.47845
1.4789
1.47908
1.47921
1.4795
1.4801
1.48118
1.48282
1.48513
1.48815
1.49191
1.4964
1.50154
1.50727
1.51352
1.52019
1.52718
1.53439
1.5417
1.54902
1.55624
1.56327
1.57002
1.5764
1.58235
1.5878
1.59272
1.59704
1.60072
1.60373
1.60601
1.60749
1.60808
1.60769
1.60614
1.60325
1.59877
1.59241
1.5838
1.57254
1.55818
1.54024
1.51822
1.49167
1.46105
1.4264
1.38787
1.34584
1.3009
1.2539
1.20586
1.15794
1.11136
1.06726
1.02663
0.99019
0.958348
0.931167
0.9084
0.889539
0.873875
0.860558
0.848646
0.837132
0.824983
0.811289
0.795258
0.776256
0.753855
0.727876
0.698429
0.665918
0.631001
0.594498
0.557227
0.519844
0.482744
0.446106
0.410063
0.374884
0.341048
0.30917
0.279856
0.253558
0.230507
0.210708
0.19399
0.180068
0.168602
0.159239
0.151644
0.145516
0.140592
0.13665
0.133506
0.131008
0.12903
0.12747
0.126245
0.125283
0.124531
0.12394
0.123473
0.1231
0.122796
0.122544
0.122329
0.122141
0.121971
0.121815
0.121669
0.121529
0.121395
0.121264
0.121136
0.121009
0.120884
0.12076
0.120638
0.120517
0.120399
0.120284
0.120172
0.120063
0.119957
0.119853
0.119752
0.119653
0.119556
0.119462
0.119372
0.119285
0.119204
0.119126
0.119053
0.118983
0.118915
0.118848
0.11878
0.118711
0.118642
0.118574
0.11851
0.11847
0.59753
0.960925
1.19191
1.32877
1.41085
1.45368
1.46606
1.45478
1.42626
1.38696
1.34322
1.30065
1.26372
1.2354
1.21711
1.20896
1.21008
1.21898
1.23393
1.25316
1.27508
1.2983
1.32166
1.34428
1.36547
1.38477
1.40185
1.41657
1.42886
1.43879
1.44647
1.4521
1.45589
1.45809
1.45897
1.4588
1.45784
1.45634
1.45453
1.45263
1.45082
1.44927
1.4481
1.44744
1.44737
1.44794
1.44919
1.4511
1.45362
1.45668
1.46021
1.46415
1.46841
1.4729
1.47755
1.48228
1.487
1.49164
1.49614
1.50045
1.50451
1.50829
1.51175
1.51488
1.51764
1.52001
1.52195
1.52341
1.52432
1.52457
1.524
1.52242
1.51957
1.51512
1.50867
1.49976
1.48786
1.47241
1.45279
1.42879
1.40036
1.3674
1.32999
1.28847
1.24347
1.19588
1.14688
1.09779
1.05007
1.0051
0.964086
0.927932
0.897136
0.871779
0.851551
0.835824
0.823742
0.814301
0.806419
0.798983
0.790892
0.781155
0.768926
0.753547
0.73458
0.711849
0.68546
0.655808
0.623531
0.589421
0.554282
0.518783
0.483366
0.448278
0.413699
0.379898
0.347299
0.316446
0.287878
0.262022
0.239117
0.219206
0.202174
0.187792
0.175774
0.165813
0.157607
0.150882
0.145393
0.140928
0.13731
0.134386
0.132032
0.130143
0.12863
0.127421
0.126455
0.125681
0.125059
0.124554
0.124138
0.123791
0.123496
0.12324
0.123014
0.12281
0.122624
0.12245
0.122288
0.122134
0.121986
0.121844
0.121706
0.121573
0.121443
0.121317
0.121195
0.121077
0.120963
0.120852
0.120746
0.120643
0.120543
0.120445
0.120351
0.12026
0.120172
0.120087
0.120008
0.119932
0.11986
0.119791
0.119724
0.119657
0.119591
0.119524
0.119455
0.119388
0.119324
0.11928
0.594426
0.939865
1.16514
1.30207
1.38654
1.4329
1.44923
1.44178
1.41671
1.3804
1.33928
1.29916
1.26465
1.23872
1.22268
1.21645
1.21898
1.22868
1.2438
1.26262
1.28364
1.30555
1.32734
1.34818
1.3675
1.38488
1.40005
1.41289
1.42337
1.43155
1.43756
1.44158
1.44381
1.44451
1.44391
1.44226
1.43981
1.43678
1.43341
1.42987
1.42636
1.42302
1.41998
1.41734
1.41521
1.41364
1.41267
1.4123
1.41247
1.41313
1.41423
1.41573
1.41755
1.41965
1.42196
1.42443
1.42701
1.42965
1.43231
1.43495
1.43755
1.44009
1.44255
1.44493
1.44721
1.44938
1.4514
1.45324
1.45483
1.45606
1.45678
1.45677
1.45577
1.45342
1.44928
1.44283
1.43346
1.42052
1.40346
1.38189
1.35547
1.32395
1.28736
1.24598
1.20043
1.15167
1.10098
1.0499
1.0001
0.953245
0.910806
0.873887
0.843114
0.818601
0.799982
0.78651
0.777178
0.770823
0.766226
0.762166
0.757476
0.751092
0.742125
0.729896
0.713968
0.694171
0.670613
0.64368
0.613987
0.582292
0.54937
0.51588
0.482289
0.448882
0.415878
0.383545
0.352273
0.322542
0.294839
0.269559
0.246945
0.227069
0.20986
0.195143
0.18268
0.172206
0.163458
0.156187
0.150167
0.145202
0.141119
0.137774
0.135041
0.132814
0.131004
0.129535
0.128343
0.127374
0.126583
0.125933
0.125395
0.124943
0.124559
0.124227
0.123937
0.123679
0.123447
0.123236
0.123042
0.122861
0.122692
0.122532
0.12238
0.122235
0.122096
0.121963
0.121836
0.121714
0.121597
0.121485
0.121378
0.121275
0.121175
0.121079
0.120987
0.120897
0.120812
0.12073
0.120652
0.120577
0.120507
0.120439
0.120373
0.120308
0.120243
0.120178
0.120111
0.120046
0.119983
0.119938
0.60375
0.911556
1.12643
1.2621
1.34866
1.39924
1.42104
1.41964
1.40057
1.36981
1.33353
1.29745
1.26617
1.24272
1.22847
1.22339
1.22646
1.23617
1.25082
1.26882
1.28871
1.30932
1.32967
1.34902
1.36683
1.38272
1.39645
1.40792
1.41709
1.42404
1.42888
1.43179
1.43295
1.43259
1.43094
1.42823
1.42469
1.42053
1.41596
1.41115
1.40627
1.40146
1.39685
1.39255
1.38863
1.38519
1.38226
1.37985
1.37791
1.37642
1.37534
1.37466
1.37432
1.3743
1.37457
1.3751
1.37586
1.37683
1.37799
1.37933
1.38084
1.38251
1.38434
1.38633
1.38849
1.39079
1.39322
1.39573
1.39826
1.4007
1.40289
1.40461
1.40557
1.40539
1.4036
1.39961
1.39275
1.38237
1.36782
1.34849
1.32386
1.29359
1.25757
1.21603
1.16956
1.11919
1.06629
1.0126
0.96004
0.910567
0.865927
0.827455
0.795924
0.771489
0.753732
0.741786
0.73449
0.730526
0.72854
0.72721
0.725302
0.721697
0.715471
0.705937
0.692663
0.675489
0.654527
0.630152
0.602954
0.57365
0.542975
0.511562
0.479878
0.448234
0.416871
0.38606
0.356162
0.327613
0.300851
0.276245
0.254033
0.234311
0.217045
0.202103
0.189295
0.178395
0.169174
0.161412
0.154902
0.149464
0.144936
0.141177
0.138067
0.1355
0.133386
0.131648
0.130219
0.129043
0.128072
0.127268
0.126596
0.12603
0.125549
0.125135
0.124775
0.124458
0.124177
0.123924
0.123695
0.123485
0.123291
0.123112
0.122944
0.122786
0.122638
0.122497
0.122364
0.122238
0.122118
0.122004
0.121896
0.121793
0.121694
0.121599
0.121508
0.12142
0.121337
0.121257
0.121181
0.121109
0.12104
0.120973
0.120909
0.120846
0.120784
0.120721
0.120657
0.120595
0.120535
0.12049
0.651464
0.8969
1.08671
1.21445
1.30109
1.35589
1.38422
1.39051
1.37941
1.35619
1.32645
1.2956
1.26815
1.24721
1.23436
1.22979
1.23271
1.24179
1.2555
1.27234
1.29097
1.31026
1.32929
1.34737
1.36398
1.37874
1.39143
1.40194
1.41024
1.41638
1.42048
1.42267
1.42316
1.42212
1.41979
1.41637
1.41206
1.40707
1.40159
1.39578
1.38979
1.38377
1.37783
1.37207
1.36659
1.36147
1.35678
1.35253
1.3487
1.34528
1.34225
1.33961
1.33736
1.33548
1.33398
1.33284
1.33208
1.33168
1.33166
1.33201
1.33275
1.33387
1.33538
1.3373
1.33962
1.34233
1.34541
1.34881
1.35247
1.35627
1.36004
1.36357
1.36654
1.36853
1.36905
1.36748
1.36312
1.35522
1.34301
1.32573
1.30271
1.27347
1.2378
1.19584
1.14816
1.09581
1.0403
0.983542
0.927728
0.875101
0.827705
0.787119
0.754266
0.729344
0.711878
0.700879
0.695027
0.692856
0.692884
0.693712
0.694073
0.692781
0.688877
0.681672
0.670746
0.65595
0.637403
0.615468
0.590703
0.563779
0.535379
0.506099
0.476392
0.446578
0.416913
0.38767
0.35919
0.33187
0.306111
0.282254
0.260534
0.241064
0.22384
0.20877
0.195702
0.184451
0.17482
0.166615
0.159653
0.153766
0.148807
0.144641
0.141153
0.138241
0.135814
0.133796
0.132118
0.130723
0.129561
0.128589
0.127773
0.127084
0.126497
0.125993
0.125557
0.125177
0.124841
0.124543
0.124276
0.124035
0.123816
0.123615
0.12343
0.123259
0.1231
0.122951
0.122811
0.122681
0.122558
0.122442
0.122332
0.122229
0.12213
0.122037
0.121947
0.121862
0.12178
0.121703
0.121629
0.121559
0.121492
0.121428
0.121366
0.121305
0.121245
0.121185
0.121126
0.121067