/*--------------------------------*- C++ -*----------------------------------*\
  =========                 |
  \\      /  F ield         | OpenFOAM: The Open Source CFD Toolbox
   \\    /   O peration     | Website:  https://openfoam.org
    \\  /    A nd           | Version:  9
     \\/     M anipulation  |
\*---------------------------------------------------------------------------*/
FoamFile
{
    format      ascii;
    class       volScalarField;
    location    "0.05";
    object      nut;
}
// * * * * * * * * * * * * * * * * * * * * * * * * * * * * * * * * * * * * * //

dimensions      [0 2 -1 0 0 0 0];

internalField   nonuniform List<scalar> 
12225
(
3.04586e-05
1.83304e-05
1.18512e-05
8.44411e-06
6.59736e-06
5.51187e-06
4.79287e-06
4.25704e-06
3.82314e-06
3.45463e-06
3.13359e-06
2.8507e-06
2.60265e-06
2.39493e-06
2.25576e-06
2.39946e-06
3.91948e-06
1.68979e-05
0.000163345
0.000102057
8.21229e-05
7.28833e-05
6.75732e-05
6.37963e-05
6.05413e-05
5.74902e-05
5.45966e-05
5.18808e-05
4.9371e-05
4.71107e-05
4.51926e-05
4.3845e-05
4.36368e-05
4.52117e-05
4.82339e-05
7.2002e-05
0.000339929
0.000220909
0.000178662
0.000157188
0.000144016
0.000134706
0.000127202
0.000120605
0.00011458
0.000109038
0.000103988
9.95234e-05
9.58579e-05
9.34723e-05
9.3302e-05
9.5262e-05
9.30168e-05
0.00011876
0.000504101
0.000350026
0.000284992
0.000249425
0.000226745
0.000210591
0.000197891
0.000187108
0.000177515
0.000168797
0.000160863
0.000153794
0.000147873
0.000143691
0.000141883
0.000139538
0.000130025
0.00015342
0.000629058
0.000471658
0.000391179
0.000343347
0.000311501
0.000288376
0.000270239
0.000255065
0.000241771
0.000229805
0.000218933
0.000209174
0.0002008
0.00019433
0.000189577
0.00018079
0.000162701
0.000180179
0.00071433
0.00057558
0.000489997
0.000434162
0.000395016
0.000365766
0.000342574
0.000323198
0.00030633
0.000291233
0.000277539
0.000265178
0.000254346
0.000245312
0.00023682
0.000221035
0.000194173
0.000202502
0.000768906
0.000657995
0.000576589
0.000517979
0.000474397
0.000440634
0.00041333
0.000390332
0.000370286
0.000352363
0.000336107
0.00032136
0.000308192
0.000296503
0.000283976
0.000261537
0.00022625
0.000223049
0.000802462
0.000719557
0.000648473
0.000591961
0.000547171
0.000510989
0.000480943
0.000455251
0.000432685
0.000412439
0.000394029
0.000377231
0.000361966
0.000347727
0.000331312
0.000303129
0.000260297
0.000244134
0.000822567
0.000763337
0.000705277
0.000654488
0.00061148
0.0005751
0.000543927
0.000516717
0.000492514
0.00047063
0.00045062
0.000432229
0.000415235
0.000398752
0.000378976
0.000346341
0.000297401
0.000267947
0.000834416
0.000793232
0.000748189
0.000705149
0.000666222
0.000631661
0.000600993
0.00057356
0.000548744
0.000526051
0.000505126
0.000485719
0.000467495
0.000449276
0.000426966
0.000391423
0.000338325
0.000296546
0.000841329
0.000812972
0.000779309
0.000744559
0.000711094
0.000679899
0.000651178
0.000624774
0.000600412
0.000577815
0.000556751
0.000537005
0.000518171
0.000498898
0.000475087
0.000438304
0.000383369
0.000331601
0.000845015
0.000824597
0.000799235
0.00077155
0.000743509
0.00071625
0.000690299
0.000665816
0.000642777
0.000621087
0.000600632
0.000581247
0.000562501
0.000542995
0.000518828
0.000482343
0.000427728
0.000369638
0.000847293
0.000832341
0.000813446
0.000791956
0.000769225
0.000746256
0.000723671
0.000701807
0.000680817
0.000660756
0.000641616
0.000623288
0.000605355
0.000586472
0.000563125
0.000528659
0.000477076
0.000416765
0.000848802
0.000837817
0.000824179
0.000808316
0.000790933
0.000772715
0.000754203
0.000735777
0.000717688
0.000700096
0.00068308
0.000666595
0.000650272
0.00063292
0.000611581
0.000580781
0.000534764
0.000476521
0.000849722
0.000841349
0.000831551
0.000820263
0.000807695
0.000794175
0.000780048
0.000765621
0.000751147
0.000736821
0.000722771
0.000708999
0.000695218
0.000680469
0.000662462
0.000637018
0.000599133
0.000548099
0.000850235
0.000843409
0.000836105
0.000828104
0.000819349
0.000809911
0.00079993
0.000789582
0.00077905
0.0007685
0.000758058
0.000747752
0.000737381
0.000726255
0.000712778
0.000694053
0.00066625
0.000627001
0.00085049
0.000844478
0.000838597
0.000832647
0.000826502
0.000820112
0.000813494
0.000806712
0.000799864
0.000793057
0.000786382
0.000779869
0.00077339
0.000766512
0.000758246
0.000746819
0.00072972
0.000704584
0.000850591
0.000844933
0.000839723
0.000834824
0.000830135
0.000825594
0.000821185
0.000816927
0.00081287
0.000809078
0.000805612
0.000802494
0.000799657
0.000796863
0.000793581
0.00078887
0.00078135
0.000769451
0.000850577
0.00084493
0.000839796
0.000835082
0.000830731
0.000826728
0.000823089
0.00081986
0.0008171
0.000814877
0.00081325
0.000812254
0.00081187
0.000811992
0.000812374
0.000812588
0.000811991
0.000809789
0.000850376
0.000844176
0.000838174
0.000832323
0.000826672
0.000821327
0.000816423
0.000812097
0.000808475
0.000805662
0.000803741
0.000802759
0.000802721
0.000803573
0.000805181
0.000807313
0.000809623
0.000811659
0.000849826
0.000842076
0.000833748
0.000825039
0.000816297
0.000807892
0.000800143
0.000793298
0.000787533
0.000782965
0.000779662
0.000777649
0.000776914
0.000777401
0.000779004
0.000781556
0.000784818
0.000788464
0.000848326
0.000836636
0.00082301
0.000808508
0.000794163
0.000780739
0.000768713
0.000758347
0.000749754
0.000742957
0.000737927
0.0007346
0.000732894
0.000732703
0.000733897
0.000736314
0.000739739
0.000743882
0.000844443
0.000823825
0.00079999
0.000775983
0.000753704
0.000734056
0.000717328
0.000703492
0.000692376
0.000683765
0.000677436
0.000673182
0.000670812
0.000670151
0.000671025
0.000673254
0.000676624
0.000680846
0.000834856
0.000796315
0.000756127
0.000719813
0.000689096
0.000663956
0.000643786
0.000627872
0.00061556
0.0006063
0.000599646
0.000595244
0.000592807
0.000592102
0.000592924
0.000595082
0.00059837
0.000602505
0.000812402
0.000743216
0.000682611
0.000634721
0.000598173
0.000570696
0.000549917
0.000534271
0.000522617
0.000514133
0.00050822
0.00050444
0.000502466
0.000502049
0.000502988
0.000505107
0.000508226
0.000512087
0.000763119
0.00065208
0.000574618
0.000521725
0.000485034
0.000459282
0.000441255
0.000428246
0.000418888
0.00041228
0.000407814
0.000405074
0.000403767
0.000403682
0.000404658
0.000406562
0.000409256
0.000412536
0.000664442
0.000515989
0.000436238
0.00038882
0.000358615
0.000338683
0.000325318
0.000316411
0.000310155
0.000305806
0.000302899
0.000301138
0.000300326
0.000300329
0.000301051
0.00030241
0.000304325
0.000306659
0.000493385
0.00034466
0.000282787
0.000249769
0.00023013
0.000217905
0.00021005
0.00020499
0.000201595
0.000199145
0.000197408
0.00019625
0.000195595
0.000195389
0.000195596
0.000196182
0.000197111
0.000198311
0.000262092
0.000170973
0.000137905
0.000121084
0.000111511
0.00010586
0.000102322
9.99729e-05
9.83997e-05
9.71258e-05
9.61136e-05
9.53423e-05
9.47978e-05
9.44678e-05
9.43397e-05
9.44002e-05
9.46343e-05
9.50163e-05
5.96076e-05
4.25459e-05
3.1411e-05
2.41334e-05
1.93645e-05
1.62193e-05
1.41152e-05
1.26742e-05
1.16745e-05
1.09784e-05
1.04807e-05
1.01201e-05
9.86003e-06
9.67706e-06
9.55563e-06
9.48475e-06
9.45614e-06
9.46271e-06
3.16654e-05
4.68068e-05
5.04638e-05
5.24799e-05
5.35237e-05
5.39327e-05
5.38987e-05
5.35382e-05
5.29256e-05
5.21378e-05
5.1468e-05
5.10365e-05
5.08681e-05
5.10592e-05
5.17436e-05
5.3033e-05
5.49382e-05
5.73146e-05
5.98058e-05
6.20192e-05
6.36984e-05
6.47365e-05
6.52682e-05
6.62797e-05
6.82404e-05
7.1059e-05
7.44538e-05
7.81051e-05
8.17651e-05
8.5281e-05
8.85743e-05
9.16135e-05
9.43944e-05
9.69269e-05
9.92282e-05
0.000101318
0.000103217
0.000104944
0.000106517
0.000107953
0.000109268
0.000110476
0.00011159
0.000112624
0.00011359
0.000114503
0.000115379
0.000116235
0.000117043
0.000117786
0.000118469
0.000119098
0.000119674
0.000120198
0.000120669
0.000121087
0.000121451
0.000121759
0.00012201
0.000122201
0.000122331
0.000122397
0.000122397
0.00012233
0.000122191
0.000121978
0.00012169
0.000121321
0.000120871
0.000120336
0.000119712
0.000118997
0.000118188
0.000117282
0.000116277
0.00011517
0.000113961
0.000112652
0.000111243
0.000109821
0.000108814
0.000108025
0.000107216
0.000106338
0.000105378
0.000104331
0.000103198
0.000101982
0.000100686
9.93128e-05
9.78674e-05
9.63532e-05
9.47733e-05
9.31303e-05
9.14247e-05
8.96575e-05
8.78304e-05
8.59026e-05
8.37195e-05
8.15398e-05
7.92676e-05
7.68361e-05
7.4195e-05
7.13062e-05
6.81454e-05
6.47105e-05
6.10408e-05
5.72285e-05
5.31781e-05
5.03454e-05
4.71659e-05
4.52391e-05
0.000198733
0.000188697
0.000170833
0.000149514
0.000127937
0.000108533
9.27628e-05
8.10211e-05
7.28741e-05
6.75012e-05
6.40674e-05
6.19055e-05
6.05475e-05
5.96876e-05
5.91336e-05
5.87667e-05
5.85137e-05
5.83292e-05
5.81844e-05
5.80604e-05
5.79442e-05
5.78261e-05
5.76987e-05
5.75568e-05
5.73985e-05
5.72279e-05
5.70533e-05
5.68642e-05
5.66534e-05
5.64227e-05
5.61754e-05
5.59139e-05
5.56399e-05
5.53536e-05
5.50545e-05
5.4742e-05
5.44168e-05
5.40807e-05
5.37368e-05
5.33883e-05
5.30379e-05
5.26876e-05
5.23387e-05
5.19915e-05
5.1645e-05
5.1297e-05
5.09452e-05
5.0588e-05
5.0226e-05
4.98612e-05
4.94962e-05
4.91328e-05
4.87722e-05
4.84148e-05
4.80602e-05
4.77071e-05
4.73527e-05
4.6994e-05
4.66338e-05
4.62721e-05
4.59058e-05
4.55348e-05
4.51613e-05
4.47911e-05
4.4437e-05
4.41169e-05
4.38264e-05
4.3492e-05
6.57841e-05
0.000134182
0.00018753
0.000227381
0.000255783
0.000274921
0.00028688
0.00029357
0.000296704
0.00029773
0.000295361
0.00029072
0.0002873
0.000287315
0.000291616
0.000299353
0.000308338
0.000315529
0.000319008
0.000318749
0.000315228
0.0003097
0.000303414
0.000297308
0.000292152
0.000288616
0.000287112
0.000287895
0.000291121
0.000296899
0.000305293
0.00031631
0.000329889
0.000345895
0.000364124
0.000384319
0.000406178
0.000429377
0.000453582
0.000478469
0.000503721
0.000529032
0.0005541
0.000578617
0.000602255
0.000624652
0.0006454
0.000663654
0.000679835
0.000695725
0.000711511
0.000727192
0.000742746
0.000758141
0.000773343
0.000788312
0.000803007
0.000817382
0.000831388
0.000844975
0.000858091
0.00087068
0.000882687
0.000894052
0.000904716
0.000914617
0.000923691
0.000931875
0.0009391
0.0009453
0.000950403
0.000954339
0.000957032
0.000958403
0.000958363
0.000956808
0.000953587
0.000948449
0.000940867
0.000929756
0.000914268
0.000896703
0.000877631
0.000857289
0.000835818
0.000813339
0.000789972
0.000765841
0.000741072
0.000715793
0.00069013
0.000664202
0.000638117
0.000611972
0.000585844
0.000559781
0.000533732
0.000507051
0.000475164
0.000439587
0.000403324
0.00036792
0.000334684
0.00030471
0.000278801
0.000257399
0.000240532
0.000227511
0.000216256
0.000206105
0.000202312
0.00020512
0.000232911
0.000248855
0.000253769
0.000249919
0.000240139
0.000227179
0.000213289
0.000200094
0.000188675
0.000179628
0.000173073
0.000168752
0.000166204
0.000164939
0.000164537
0.000164685
0.00016516
0.000165815
0.000166549
0.000167297
0.000168012
0.000168665
0.000169232
0.000169696
0.000170048
0.000170286
0.000170408
0.000170445
0.000170401
0.000170285
0.000170107
0.000169875
0.000169593
0.000169267
0.000168899
0.000168493
0.00016805
0.000167578
0.000167083
0.000166573
0.000166053
0.000165529
0.000165004
0.000164479
0.000163951
0.000163418
0.000162876
0.000162324
0.000161762
0.000161193
0.000160623
0.000160054
0.00015949
0.000158931
0.000158373
0.000157812
0.000157241
0.00015665
0.000156015
0.000155341
0.000154627
0.000153874
0.000153087
0.000152274
0.000151457
0.000150646
0.00014973
0.000147608
9.2688e-05
0.000186042
0.000267186
0.000331572
0.000380064
0.000414766
0.000437919
0.000451601
0.000457649
0.000457234
0.000451441
0.000443877
0.000437556
0.000434505
0.000436522
0.000441468
0.0004467
0.000449853
0.000449531
0.000445618
0.000439089
0.000431657
0.000425264
0.000421705
0.000422431
0.000428483
0.000440491
0.000458752
0.000483277
0.000513814
0.000549858
0.000590661
0.000635289
0.00068269
0.000731799
0.000781617
0.000831284
0.000880116
0.000927605
0.000973403
0.00101729
0.00105914
0.00109888
0.00113647
0.00117189
0.00120514
0.00123623
0.00126507
0.00129298
0.00132046
0.0013476
0.00137438
0.00140074
0.00142664
0.00145199
0.00147672
0.00150076
0.00152401
0.0015464
0.00156782
0.00158819
0.00160742
0.0016254
0.00164205
0.00165726
0.00167093
0.00168296
0.00169324
0.00170168
0.00170816
0.00171258
0.00171482
0.00171478
0.00171233
0.00170734
0.00169966
0.00168912
0.00167546
0.00165829
0.00163703
0.00161117
0.00158231
0.00155096
0.00151745
0.00148197
0.00144473
0.00140593
0.00136577
0.00132446
0.00128222
0.00123925
0.00119574
0.00115187
0.00110779
0.0010636
0.00101935
0.000974943
0.00092986
0.000882321
0.000829562
0.000773118
0.000714169
0.000654226
0.000595173
0.000539161
0.000488311
0.000444258
0.000407554
0.000377512
0.000354416
0.000339032
0.00033115
0.000331205
0.000332685
0.000332684
0.000330085
0.000324824
0.000317382
0.000308403
0.000298553
0.000288595
0.000279412
0.000271794
0.00026617
0.000262533
0.000260576
0.000259884
0.000260063
0.0002608
0.000261864
0.000263091
0.00026437
0.000265625
0.000266799
0.000267853
0.000268761
0.000269504
0.000270071
0.000270462
0.000270711
0.000270832
0.00027084
0.000270748
0.000270567
0.000270309
0.00026998
0.000269585
0.00026913
0.000268621
0.000268066
0.000267473
0.000266855
0.00026622
0.000265578
0.000264932
0.000264286
0.000263637
0.000262982
0.000262314
0.000261632
0.000260936
0.000260228
0.000259515
0.000258802
0.000258094
0.00025739
0.000256687
0.000255978
0.000255251
0.000254488
0.000253665
0.000252766
0.00025179
0.000250736
0.000249611
0.000248428
0.000247216
0.000246004
0.000244654
0.000242344
0.000118397
0.00023966
0.000345117
0.00042537
0.000482938
0.000521541
0.000544549
0.000554827
0.000554929
0.000548552
0.000540242
0.000533468
0.000530218
0.000530828
0.00053416
0.000538077
0.000540498
0.00054013
0.000536893
0.000531958
0.000527443
0.000525893
0.000529734
0.000540879
0.000560558
0.000589307
0.000627033
0.000673107
0.00072646
0.000785695
0.000849222
0.000915402
0.00098269
0.00104974
0.00111548
0.00117913
0.00124016
0.0012983
0.00135345
0.00140566
0.00145503
0.00150174
0.00154597
0.00158788
0.00162766
0.00166542
0.0017013
0.00173554
0.00176894
0.00180174
0.00183397
0.00186562
0.0018966
0.00192685
0.00195626
0.00198475
0.0020122
0.00203852
0.00206359
0.00208731
0.00210956
0.00213023
0.00214921
0.00216639
0.00218165
0.00219489
0.00220598
0.00221482
0.00222128
0.00222525
0.00222661
0.00222525
0.00222103
0.00221385
0.00220356
0.00219004
0.00217313
0.00215263
0.00212833
0.00209992
0.00206711
0.00203119
0.00199255
0.00195146
0.00190814
0.00186281
0.00181571
0.00176707
0.00171716
0.00166623
0.00161451
0.00156222
0.00150955
0.00145664
0.00140359
0.00135041
0.00129694
0.00124276
0.00118678
0.00112686
0.0010627
0.000994716
0.000923715
0.000851057
0.00077869
0.000709009
0.000644455
0.000586915
0.000537399
0.000496797
0.000465712
0.00044379
0.000429554
0.000419925
0.000412551
0.000406157
0.000400172
0.000394252
0.000388021
0.000381095
0.000373361
0.000365216
0.000357469
0.000350936
0.000346083
0.000342959
0.000341327
0.00034084
0.00034116
0.000342006
0.000343165
0.000344482
0.000345844
0.00034717
0.0003484
0.000349492
0.000350414
0.000351149
0.000351688
0.000352062
0.000352283
0.000352364
0.000352322
0.000352171
0.000351924
0.000351589
0.000351174
0.000350685
0.00035013
0.000349518
0.000348859
0.000348167
0.000347452
0.000346726
0.000345995
0.000345262
0.000344528
0.000343787
0.000343034
0.000342265
0.000341478
0.000340678
0.000339868
0.000339057
0.000338248
0.000337443
0.000336637
0.000335823
0.000334986
0.000334107
0.000333158
0.000332115
0.00033097
0.00032972
0.000328371
0.000326941
0.000325466
0.000323991
0.000322437
0.00032043
0.000144239
0.000294871
0.000420939
0.000512315
0.000573909
0.000611274
0.000629652
0.000634294
0.000630059
0.000622221
0.000614772
0.000609951
0.000608262
0.000608906
0.000610413
0.000611313
0.000610777
0.000609034
0.000607483
0.000608447
0.000614667
0.000628707
0.000652473
0.000686942
0.000732142
0.00078727
0.00085091
0.000921254
0.000996324
0.00107415
0.00115294
0.00123114
0.00130754
0.00138124
0.00145167
0.00151852
0.00158169
0.00164125
0.00169737
0.0017503
0.00180031
0.00184767
0.00189263
0.00193543
0.00197625
0.00201521
0.0020524
0.00208816
0.002123
0.0021571
0.00219048
0.00222309
0.00225486
0.00228569
0.00231548
0.00234412
0.0023715
0.00239749
0.00242198
0.00244485
0.00246598
0.00248525
0.00250255
0.00251776
0.00253077
0.00254146
0.00254972
0.00255544
0.00255851
0.00255881
0.00255624
0.00255067
0.00254201
0.00253014
0.00251495
0.00249633
0.00247416
0.00244833
0.00241869
0.00238509
0.00234741
0.00230676
0.00226357
0.00221805
0.0021704
0.00212087
0.0020697
0.00201718
0.00196356
0.00190912
0.0018541
0.00179872
0.00174314
0.00168749
0.00163179
0.00157601
0.00151993
0.00146311
0.00140466
0.00134296
0.00127699
0.00120674
0.00113251
0.00105507
0.000975821
0.000896778
0.00082039
0.000749114
0.000685036
0.000629912
0.000584945
0.00055022
0.000524439
0.000505306
0.000490736
0.000479428
0.000470681
0.000463926
0.000458381
0.000453059
0.000447105
0.000440239
0.000432889
0.000425885
0.000419985
0.000415584
0.000412707
0.000411146
0.00041061
0.00041081
0.000411503
0.0004125
0.000413655
0.000414858
0.000416028
0.000417104
0.00041804
0.000418808
0.000419389
0.000419801
0.000420052
0.000420153
0.00042012
0.000419967
0.000419707
0.00041935
0.000418906
0.000418382
0.000417785
0.000417126
0.000416414
0.000415663
0.000414887
0.000414095
0.000413297
0.000412497
0.000411696
0.00041089
0.000410074
0.000409243
0.000408394
0.000407529
0.000406654
0.000405775
0.000404896
0.000404019
0.000403142
0.000402254
0.000401343
0.000400386
0.000399359
0.00039823
0.000396985
0.000395621
0.000394142
0.000392565
0.000390933
0.000389302
0.000387662
0.000385947
0.000168885
0.000339739
0.000483755
0.000586677
0.000653203
0.000690856
0.00070714
0.000708617
0.000702086
0.000692952
0.000684717
0.000678895
0.000675476
0.000673651
0.000672539
0.00067177
0.000671873
0.000674373
0.000681584
0.000696134
0.000720371
0.000755856
0.000803079
0.000861457
0.000929547
0.00100537
0.00108671
0.0011714
0.00125743
0.0013431
0.00142704
0.00150824
0.00158597
0.00165982
0.00172959
0.00179528
0.001857
0.00191499
0.00196953
0.00202093
0.00206949
0.00211551
0.00215924
0.00220091
0.00224066
0.00227861
0.00231481
0.00234961
0.0023834
0.00241632
0.00244838
0.00247954
0.00250972
0.00253881
0.00256671
0.00259329
0.00261844
0.00264203
0.00266394
0.00268405
0.00270224
0.00271838
0.00273237
0.0027441
0.00275346
0.00276034
0.00276465
0.00276627
0.00276512
0.00276108
0.00275408
0.002744
0.00273076
0.00271427
0.00269444
0.0026712
0.00264446
0.00261416
0.00258022
0.00254259
0.00250124
0.00245726
0.00241114
0.00236306
0.00231322
0.00226186
0.00220927
0.00215574
0.00210154
0.00204695
0.00199221
0.00193751
0.00188297
0.00182866
0.00177455
0.00172049
0.00166618
0.00161113
0.00155448
0.00149484
0.00143087
0.00136235
0.00128927
0.001212
0.00113144
0.00104917
0.000967346
0.000888493
0.000815188
0.00074983
0.000694253
0.000649175
0.000613901
0.000586705
0.000565736
0.000549654
0.000537646
0.000529038
0.000522915
0.00051803
0.000513091
0.000507258
0.000500474
0.000493341
0.000486682
0.000481128
0.000476958
0.000474149
0.000472508
0.000471785
0.000471733
0.000472143
0.000472846
0.000473707
0.000474623
0.000475515
0.00047632
0.000476998
0.000477516
0.00047788
0.000478091
0.000478154
0.000478082
0.000477889
0.000477586
0.000477185
0.000476695
0.000476123
0.000475479
0.00047477
0.000474008
0.000473204
0.000472373
0.000471525
0.000470669
0.000469812
0.000468955
0.000468095
0.000467227
0.000466347
0.000465452
0.000464542
0.000463621
0.000462694
0.000461766
0.000460839
0.000459911
0.000458973
0.000458012
0.000457008
0.000455935
0.000454759
0.000453465
0.000452046
0.000450504
0.000448858
0.000447148
0.000445439
0.000443769
0.000442251
0.000182786
0.00034704
0.00052039
0.00064516
0.000722427
0.000763837
0.000779808
0.000779715
0.000771178
0.000759832
0.000749136
0.000740615
0.00073453
0.00073069
0.000729145
0.000730614
0.000736616
0.000749286
0.000770943
0.000803535
0.000848155
0.00090479
0.000972363
0.00104902
0.00113248
0.0012204
0.00131058
0.00140113
0.0014905
0.00157749
0.00166123
0.00174112
0.00181683
0.0018882
0.00195526
0.00201814
0.00207706
0.00213229
0.00218414
0.00223293
0.00227896
0.00232251
0.00236381
0.00240305
0.00244038
0.00247589
0.00250961
0.00254188
0.00257304
0.00260322
0.00263242
0.0026606
0.00268768
0.00271355
0.00273811
0.00276122
0.00278278
0.00280266
0.00282072
0.00283686
0.00285095
0.00286288
0.00287255
0.00287986
0.0028847
0.00288699
0.00288664
0.00288356
0.00287767
0.00286889
0.00285715
0.00284236
0.00282446
0.00280338
0.00277906
0.00275146
0.00272053
0.00268624
0.00264859
0.00260758
0.00256325
0.00251681
0.00246875
0.00241923
0.00236847
0.00231675
0.00226437
0.00221164
0.00215886
0.00210631
0.00205421
0.0020027
0.00195187
0.00190169
0.00185203
0.00180265
0.00175312
0.00170286
0.00165096
0.00159612
0.0015368
0.00147268
0.00140353
0.00132945
0.00125101
0.00116941
0.00108647
0.00100459
0.000926469
0.000854848
0.000792038
0.000739349
0.000696741
0.000663062
0.000636758
0.000616512
0.000601407
0.000590683
0.000583372
0.000578144
0.000573508
0.000568274
0.000561964
0.000554866
0.000547703
0.000541204
0.000535837
0.00053176
0.000528906
0.000527093
0.000526102
0.000525724
0.000525777
0.00052611
0.000526601
0.000527153
0.000527691
0.000528158
0.000528511
0.000528739
0.000528833
0.000528796
0.000528635
0.000528359
0.00052798
0.000527507
0.000526949
0.000526314
0.00052561
0.000524845
0.000524029
0.000523174
0.00052229
0.00052139
0.000520482
0.000519574
0.000518667
0.00051776
0.000516849
0.00051593
0.000514999
0.000514056
0.000513103
0.000512144
0.000511183
0.000510222
0.00050926
0.00050829
0.0005073
0.00050627
0.000505175
0.000503982
0.000502675
0.000501245
0.000499691
0.000498031
0.000496304
0.000494574
0.00049291
0.000491512
3.33741e-05
0.000221295
0.000488622
0.000673732
0.000776281
0.000826736
0.000845434
0.000845296
0.000835303
0.000821697
0.000808396
0.000797486
0.00078996
0.000786493
0.00078802
0.000795985
0.000812252
0.000838746
0.000876969
0.000927568
0.000990134
0.00106328
0.00114492
0.00123267
0.00132417
0.00141729
0.00151023
0.00160157
0.00169022
0.0017754
0.00185658
0.00193346
0.00200589
0.00207388
0.00213754
0.00219705
0.00225266
0.00230465
0.00235332
0.00239896
0.00244185
0.00248226
0.00252038
0.0025564
0.00259045
0.00262259
0.00265288
0.00268163
0.00270916
0.00273559
0.00276094
0.00278515
0.00280817
0.00282988
0.00285018
0.00286896
0.00288608
0.00290143
0.0029149
0.00292635
0.00293569
0.00294281
0.00294761
0.00295
0.00294989
0.00294721
0.00294188
0.00293384
0.00292301
0.00290935
0.00289278
0.00287327
0.00285075
0.00282518
0.00279654
0.0027648
0.00272995
0.00269201
0.002651
0.00260699
0.0025601
0.00251172
0.00246226
0.0024119
0.0023609
0.00230958
0.00225828
0.00220735
0.00215714
0.0021079
0.00205986
0.00201311
0.00196766
0.00192339
0.00188006
0.00183727
0.00179449
0.00175099
0.0017058
0.0016576
0.00160475
0.00154681
0.00148341
0.00141448
0.00134036
0.00126194
0.00118078
0.00109908
0.0010195
0.000944892
0.000877866
0.000820183
0.00077238
0.000733851
0.00070339
0.000679775
0.000662031
0.000649316
0.000640625
0.000634621
0.000629757
0.000624669
0.000618592
0.000611519
0.000603996
0.000596738
0.000590316
0.000585032
0.000580945
0.00057796
0.000575904
0.000574587
0.00057383
0.000573474
0.000573386
0.000573457
0.000573597
0.000573737
0.00057382
0.000573821
0.000573723
0.000573521
0.000573216
0.000572814
0.000572322
0.000571749
0.000571101
0.000570386
0.00056961
0.000568781
0.000567907
0.000566997
0.000566063
0.000565114
0.00056416
0.000563207
0.000562257
0.00056131
0.000560364
0.000559414
0.000558456
0.00055749
0.000556517
0.000555538
0.000554558
0.000553579
0.000552599
0.000551613
0.000550609
0.000549572
0.000548474
0.000547288
0.000545995
0.000544586
0.000543059
0.000541429
0.000539729
0.000538022
0.00053639
0.00053507
3.51909e-05
0.000241409
0.000525734
0.00071856
0.000827163
0.000882086
0.000903363
0.00090411
0.00089368
0.000878814
0.000864104
0.000852469
0.000845798
0.000845585
0.000853356
0.000870755
0.00089934
0.000940213
0.000993665
0.00105902
0.00113471
0.00121858
0.00130822
0.00140129
0.00149572
0.00158978
0.00168213
0.00177172
0.00185782
0.00193992
0.00201772
0.00209106
0.0021599
0.00222432
0.00228445
0.00234049
0.00239268
0.00244129
0.00248658
0.00252882
0.00256827
0.00260516
0.00263967
0.00267197
0.00270219
0.0027304
0.00275664
0.00278124
0.00280451
0.00282656
0.00284742
0.00286707
0.00288542
0.00290241
0.00291792
0.00293186
0.00294409
0.00295452
0.00296303
0.00296951
0.00297385
0.00297596
0.00297575
0.00297314
0.00296805
0.00296043
0.00295019
0.0029373
0.0029217
0.00290334
0.00288219
0.00285821
0.00283136
0.00280162
0.00276898
0.00273343
0.00269501
0.00265373
0.00260969
0.00256298
0.00251383
0.00246382
0.0024132
0.0023622
0.00231113
0.0022604
0.00221041
0.00216159
0.00211432
0.0020689
0.00202552
0.00198426
0.00194503
0.0019076
0.00187159
0.00183647
0.00180154
0.00176594
0.00172859
0.00168811
0.00164285
0.00159221
0.00153573
0.00147318
0.00140474
0.00133113
0.00125368
0.00117439
0.0010958
0.00102078
0.000952046
0.000891678
0.000840661
0.000798868
0.000765445
0.000739322
0.000719518
0.000705123
0.000695102
0.000688135
0.000682694
0.000677363
0.00067122
0.000664036
0.000656171
0.00064826
0.000640904
0.000634497
0.000629204
0.000625016
0.00062182
0.000619459
0.000617767
0.00061659
0.00061579
0.000615249
0.000614869
0.000614569
0.000614283
0.000613969
0.000613603
0.000613172
0.00061267
0.000612099
0.00061146
0.000610759
0.00061
0.000609188
0.000608329
0.000607428
0.000606492
0.000605528
0.000604546
0.000603553
0.000602558
0.000601566
0.000600582
0.000599604
0.000598631
0.000597659
0.000596685
0.000595707
0.000594724
0.000593739
0.000592754
0.00059177
0.000590786
0.000589798
0.000588797
0.00058777
0.000586686
0.000585525
0.000584268
0.000582906
0.000581435
0.000579866
0.000578229
0.000576581
0.000575006
0.000573745
0.000240844
0.000419505
0.00062246
0.000774348
0.000873287
0.000928852
0.000952708
0.000955522
0.000946211
0.000931828
0.000917655
0.000907474
0.000904007
0.00090935
0.000925241
0.000953063
0.00099365
0.00104706
0.00111246
0.00118821
0.00127214
0.00136185
0.00145505
0.00154968
0.00164405
0.00173681
0.00182696
0.00191373
0.00199664
0.00207533
0.00214961
0.00221942
0.00228477
0.00234575
0.00240249
0.00245518
0.00250405
0.00254931
0.00259121
0.00262999
0.00266586
0.00269904
0.00272971
0.00275802
0.0027841
0.00280802
0.00282985
0.00284992
0.00286853
0.00288582
0.00290182
0.00291654
0.00292992
0.00294189
0.00295238
0.00296127
0.00296848
0.0029739
0.00297743
0.00297897
0.00297842
0.0029757
0.00297073
0.00296342
0.00295372
0.00294155
0.00292688
0.00290964
0.0028898
0.00286732
0.00284216
0.0028143
0.00278372
0.00275039
0.00271433
0.00267554
0.00263404
0.0025899
0.00254322
0.00249412
0.00244309
0.00239164
0.00233989
0.00228815
0.00223682
0.0021864
0.00213742
0.0020904
0.00204581
0.00200399
0.00196517
0.00192938
0.00189645
0.00186604
0.00183762
0.00181048
0.00178377
0.00175649
0.00172741
0.00169512
0.00165796
0.00161517
0.00156619
0.0015107
0.00144877
0.00138097
0.00130847
0.0012331
0.00115727
0.00108376
0.00101533
0.000954216
0.00090173
0.000858132
0.000822893
0.000795119
0.000773862
0.000758176
0.000746998
0.000739033
0.000732811
0.000726939
0.000720437
0.000712938
0.000704648
0.000696099
0.000687872
0.000680408
0.000673947
0.000668556
0.00066418
0.000660704
0.000657986
0.000655882
0.000654257
0.000652992
0.000651984
0.000651143
0.000650394
0.000649682
0.000648977
0.000648256
0.000647509
0.000646727
0.000645909
0.000645054
0.000644165
0.000643244
0.000642292
0.000641314
0.000640314
0.000639297
0.000638269
0.000637238
0.00063621
0.00063519
0.00063418
0.000633181
0.000632192
0.000631209
0.000630229
0.00062925
0.00062827
0.00062729
0.000626313
0.000625338
0.000624365
0.000623391
0.000622407
0.000621403
0.000620349
0.000619229
0.000618026
0.00061673
0.000615337
0.000613855
0.000612308
0.000610745
0.000609248
0.000608044
0.000223776
0.00039558
0.000627358
0.000793955
0.000901614
0.000963532
0.000992416
0.000999176
0.000992912
0.000981062
0.000969529
0.000962834
0.000964334
0.000976465
0.00100087
0.00103843
0.00108913
0.00115212
0.00122577
0.00130793
0.00139624
0.00148841
0.00158238
0.00167643
0.00176919
0.00185962
0.00194695
0.00203062
0.00211025
0.00218562
0.00225658
0.00232312
0.00238524
0.00244305
0.00249666
0.00254623
0.00259195
0.00263401
0.00267262
0.00270798
0.00274028
0.00276972
0.00279647
0.00282066
0.00284245
0.00286191
0.00287913
0.00289447
0.00290823
0.00292056
0.00293155
0.0029412
0.00294949
0.00295639
0.00296183
0.00296573
0.00296802
0.00296861
0.00296741
0.00296434
0.0029593
0.00295223
0.00294303
0.00293165
0.00291801
0.00290206
0.00288374
0.00286299
0.00283978
0.00281406
0.0027858
0.00275497
0.00272154
0.0026855
0.00264684
0.00260557
0.00256173
0.00251537
0.00246658
0.00241549
0.00236311
0.00231035
0.0022574
0.00220465
0.00215263
0.00210195
0.00205328
0.00200729
0.00196459
0.00192562
0.00189065
0.00185971
0.00183255
0.0018087
0.00178746
0.00176799
0.00174924
0.00173005
0.00170912
0.00168494
0.00165585
0.00162098
0.00157965
0.00153148
0.00147643
0.00141498
0.00134818
0.00127772
0.00120587
0.0011353
0.00106871
0.00100842
0.000955947
0.00091183
0.000875818
0.000847195
0.000825073
0.000808494
0.000796382
0.000787473
0.000780367
0.000773742
0.000766627
0.000758591
0.000749732
0.000740486
0.000731391
0.000722899
0.000715297
0.000708709
0.000703136
0.000698502
0.000694693
0.000691582
0.000689046
0.000686966
0.000685237
0.000683767
0.000682474
0.000681292
0.000680183
0.000679119
0.000678079
0.00067705
0.000676024
0.000674995
0.000673959
0.000672917
0.000671866
0.000670807
0.000669742
0.000668674
0.000667607
0.000666545
0.000665492
0.000664452
0.000663428
0.00066242
0.000661426
0.000660443
0.000659468
0.000658499
0.000657534
0.000656572
0.000655615
0.000654663
0.000653715
0.000652767
0.000651814
0.000650846
0.000649836
0.000648771
0.000647637
0.000646422
0.000645123
0.000643744
0.000642306
0.00064085
0.000639448
0.000638308
4.06605e-05
0.000286648
0.000589476
0.000792204
0.000915955
0.000987042
0.00102271
0.00103512
0.00103375
0.00102637
0.0010193
0.0010176