/*--------------------------------*- C++ -*----------------------------------*\
  =========                 |
  \\      /  F ield         | OpenFOAM: The Open Source CFD Toolbox
   \\    /   O peration     | Website:  https://openfoam.org
    \\  /    A nd           | Version:  9
     \\/     M anipulation  |
\*---------------------------------------------------------------------------*/
FoamFile
{
    format      ascii;
    class       volScalarField;
    location    "0.05";
    object      p;
}
// * * * * * * * * * * * * * * * * * * * * * * * * * * * * * * * * * * * * * //

dimensions      [0 2 -2 0 0 0 0];

internalField   nonuniform List<scalar> 
12225
(
0.741762
0.413222
0.319151
0.310477
0.308672
0.311501
0.32058
0.33369
0.349399
0.367279
0.386933
0.40777
0.429089
0.449979
0.469471
0.484079
0.492663
0.411623
0.306607
0.32601
0.316653
0.313453
0.311978
0.314678
0.323507
0.336508
0.352256
0.37027
0.390115
0.411181
0.43276
0.45394
0.473866
0.489441
0.502369
0.506385
0.288736
0.339448
0.323463
0.316732
0.315744
0.318722
0.327336
0.340158
0.355898
0.374048
0.39415
0.415607
0.437766
0.459825
0.481224
0.499892
0.522494
0.56852
0.323
0.34565
0.324761
0.317947
0.317944
0.321461
0.330078
0.342806
0.358537
0.376786
0.397123
0.419017
0.441943
0.465314
0.488951
0.512469
0.54354
0.595742
0.327982
0.338363
0.322097
0.31741
0.318436
0.322604
0.331365
0.344041
0.359718
0.377968
0.398419
0.420638
0.444242
0.468865
0.494646
0.522573
0.558826
0.607963
0.321091
0.329006
0.318514
0.315726
0.317598
0.322398
0.331312
0.343892
0.359417
0.377522
0.397898
0.42021
0.444193
0.469626
0.496804
0.527395
0.565743
0.610147
0.314649
0.321231
0.314597
0.313113
0.315654
0.320969
0.329954
0.342337
0.357564
0.375327
0.395375
0.417449
0.441346
0.466903
0.494408
0.52563
0.563275
0.601653
0.3094
0.314313
0.310148
0.309644
0.312682
0.31834
0.327263
0.339304
0.354043
0.371222
0.390628
0.412041
0.43527
0.460122
0.486754
0.516663
0.551246
0.582817
0.304123
0.307526
0.3051
0.305363
0.308713
0.314509
0.323203
0.334721
0.348747
0.365056
0.383452
0.40372
0.425628
0.448892
0.473467
0.500382
0.530155
0.554776
0.298379
0.300669
0.299474
0.300288
0.303754
0.30947
0.317739
0.328525
0.341583
0.356705
0.373689
0.392292
0.41221
0.433039
0.454498
0.477111
0.500913
0.518704
0.292126
0.293654
0.293266
0.294417
0.297808
0.303223
0.310857
0.320682
0.332499
0.3461
0.361258
0.377683
0.394984
0.412629
0.430121
0.447527
0.464673
0.475761
0.2859
0.286954
0.287001
0.288281
0.291441
0.296387
0.303241
0.311971
0.322396
0.334299
0.347421
0.36142
0.37583
0.390025
0.403346
0.415522
0.426289
0.431159
0.279291
0.279999
0.280287
0.281533
0.284313
0.288622
0.294527
0.30198
0.310807
0.320774
0.331587
0.342853
0.354042
0.364461
0.373353
0.380218
0.384673
0.383566
0.271133
0.27157
0.271925
0.27296
0.275142
0.278529
0.283139
0.288903
0.295644
0.303106
0.310956
0.318754
0.325923
0.331731
0.33538
0.336235
0.333834
0.326252
0.261063
0.261295
0.261515
0.262109
0.263423
0.265537
0.268437
0.272028
0.276121
0.280439
0.284618
0.288191
0.290566
0.291026
0.2888
0.28322
0.273803
0.259451
0.24869
0.248748
0.248619
0.248488
0.248606
0.249045
0.249766
0.250653
0.251504
0.252033
0.251867
0.250542
0.247501
0.242101
0.233665
0.221588
0.205416
0.184503
0.233671
0.233543
0.232848
0.231667
0.230208
0.228536
0.226596
0.224258
0.221323
0.217512
0.21248
0.20581
0.197024
0.185602
0.171015
0.152791
0.130559
0.103917
0.215925
0.215559
0.214076
0.211495
0.208057
0.203843
0.198801
0.192811
0.185696
0.17722
0.167094
0.154988
0.140539
0.123374
0.10313
0.0794892
0.0521982
0.0210158
0.196101
0.195416
0.192893
0.188535
0.182699
0.175534
0.167017
0.157067
0.145565
0.132345
0.11721
0.0999395
0.0803054
0.0580874
0.033088
0.00514822
-0.02585
-0.0599826
0.180807
0.179881
0.176359
0.170341
0.1624
0.152776
0.141488
0.128507
0.113773
0.0971821
0.0786033
0.057893
0.0349087
0.00951824
-0.0183893
-0.0488964
-0.082064
-0.117914
0.171649
0.170582
0.166202
0.158789
0.149198
0.137748
0.12449
0.109441
0.0925866
0.07386
0.0531685
0.0304137
0.00550112
-0.0216519
-0.0511094
-0.0829124
-0.117089
-0.153627
0.166336
0.165243
0.159967
0.151175
0.140127
0.127172
0.112363
0.0957703
0.077405
0.0572144
0.0351245
0.0110633
-0.0150346
-0.043222
-0.0735338
-0.105984
-0.140576
-0.17727
0.163916
0.163094
0.156839
0.146649
0.134328
0.120138
0.104126
0.0864192
0.0670326
0.0459013
0.0229552
-0.00186454
-0.0286079
-0.0573119
-0.087995
-0.120655
-0.155282
-0.191817
0.163545
0.163464
0.15608
0.144498
0.131113
0.115896
0.0989387
0.080453
0.0604184
0.0387333
0.0153223
-0.00986869
-0.0368836
-0.0657526
-0.0964858
-0.129072
-0.163494
-0.199679
0.165109
0.16647
0.157195
0.144142
0.129902
0.113773
0.0960394
0.0770306
0.0566287
0.0346749
0.0110833
-0.0142006
-0.0412215
-0.0700087
-0.100569
-0.132887
-0.166938
-0.202643
0.168776
0.173388
0.160288
0.145176
0.130109
0.113092
0.0946934
0.0753684
0.0548225
0.0328243
0.00927114
-0.0158942
-0.0427214
-0.0712429
-0.101465
-0.133369
-0.16693
-0.202057
0.166612
0.182875
0.165019
0.147111
0.130946
0.113014
0.0941537
0.0747225
0.0542498
0.0324243
0.00910589
-0.0157607
-0.0422303
-0.0703404
-0.100097
-0.131478
-0.164459
-0.198944
0.13318
0.1811
0.166712
0.148454
0.131221
0.112467
0.093498
0.0743511
0.0542378
0.0328541
0.00998798
-0.0143995
-0.0403633
-0.0679412
-0.0971354
-0.127919
-0.160266
-0.194086
0.122066
0.15829
0.159154
0.14741
0.130245
0.110929
0.0922806
0.0737761
0.0543488
0.0336454
0.0114097
-0.0123676
-0.0377319
-0.0647114
-0.0933007
-0.123466
-0.155171
-0.188322
0.549293
0.269374
0.171364
0.149215
0.130593
0.110672
0.092237
0.0742593
0.0554115
0.0350268
0.0131659
-0.010232
-0.0352172
-0.0618105
-0.0900052
-0.119766
-0.151047
-0.183725
-0.954507
-0.945634
-0.953305
-0.983702
-1.03163
-1.08917
-1.14894
-1.20447
-1.25055
-1.28348
-1.30374
-1.3142
-1.31838
-1.31932
-1.32007
-1.32358
-1.33214
-1.34726
-1.36963
-1.39948
-1.43673
-1.48118
-1.53291
-1.59276
-1.66312
-1.74801
-1.85355
-1.98724
-2.15647
-2.36683
-2.62075
-2.91681
-3.24976
-3.61123
-3.99078
-4.377
-4.75862
-5.12527
-5.46801
-5.77962
-6.05459
-6.28898
-6.48011
-6.62668
-6.72919
-6.78968
-6.8086
-6.78164
-6.70311
-6.5746
-6.40109
-6.18589
-5.93186
-5.64157
-5.31757
-4.96258
-4.57946
-4.17128
-3.74133
-3.29309
-2.83024
-2.35663
-1.87625
-1.39321
-0.911716
-0.43602
0.0296117
0.480942
0.913807
1.32416
1.70813
2.06206
2.38257
2.66662
2.91156
3.11515
3.27562
3.39174
3.4635
3.49292
3.48112
3.42762
3.33372
3.20233
3.03705
2.84201
2.62182
2.38152
2.12642
1.86206
1.59405
1.32796
1.06926
0.823211
0.594961
0.389445
0.211999
0.0716614
-0.0347386
-0.109705
-0.155303
-0.171967
-0.163194
-0.135252
-0.095113
-0.048889
-0.000305902
0.0484943
0.0777756
0.115996
0.182652
0.242942
0.289044
0.317845
0.331765
0.334979
0.330589
0.320876
0.307889
0.29327
0.278171
0.263351
0.249296
0.23632
0.224623
0.214318
0.205444
0.197982
0.19187
0.187017
0.183311
0.180633
0.178856
0.17786
0.177523
0.177735
0.178387
0.179387
0.180663
0.182115
0.183692
0.18534
0.187017
0.188688
0.190323
0.191902
0.193407
0.194826
0.196148
0.197368
0.198484
0.199497
0.200411
0.20123
0.201963
0.202617
0.203199
0.203717
0.204174
0.204577
0.204927
0.20523
0.20549
0.205714
0.205908
0.206079
0.206233
0.206375
0.206511
0.206642
0.206766
0.206885
0.207003
0.207125
0.207262
0.207432
0.207682
0.208051
0.208907
0.209647
-1.03566
-1.02632
-1.046
-1.09013
-1.14404
-1.19919
-1.25066
-1.29472
-1.32887
-1.35186
-1.36045
-1.35393
-1.3354
-1.31046
-1.28519
-1.26482
-1.25274
-1.25008
-1.25643
-1.27109
-1.29369
-1.32499
-1.36739
-1.42302
-1.49421
-1.58608
-1.7063
-1.86423
-2.06832
-2.32347
-2.62945
-2.98076
-3.36758
-3.77745
-4.19699
-4.61342
-5.01546
-5.3938
-5.74118
-6.05221
-6.32308
-6.55114
-6.73459
-6.87223
-6.96311
-7.00618
-7.00121
-6.95108
-6.86228
-6.73624
-6.57123
-6.36763
-6.12677
-5.85049
-5.541
-5.20074
-4.83245
-4.43905
-4.02371
-3.5898
-3.14089
-2.68071
-2.21314
-1.74216
-1.27185
-0.806351
-0.349791
0.0937164
0.520132
0.925535
1.30617
1.6585
1.97927
2.26553
2.51473
2.72475
2.894
3.02161
3.10686
3.14709
3.14262
3.09741
3.01418
2.89553
2.74472
2.5656
2.36254
2.14028
1.9039
1.65866
1.40993
1.16306
0.923262
0.695544
0.484577
0.294451
0.12824
-0.0136768
-0.121752
-0.192099
-0.22821
-0.231816
-0.20713
-0.160696
-0.100386
-0.0341139
0.0324446
0.0998464
0.179805
0.243354
0.275736
0.301823
0.320111
0.333123
0.340325
0.341288
0.336538
0.327203
0.314609
0.300062
0.284674
0.269304
0.254567
0.240881
0.228508
0.217588
0.208168
0.20023
0.193704
0.188491
0.184473
0.181524
0.179513
0.178313
0.177803
0.177868
0.178403
0.179304
0.180481
0.181869
0.183395
0.185004
0.186651
0.188298
0.189918
0.191486
0.192986
0.194405
0.195733
0.196963
0.198091
0.199117
0.200044
0.200877
0.201621
0.202286
0.202878
0.203405
0.203875
0.20429
0.204656
0.204975
0.205252
0.205491
0.205699
0.205883
0.20605
0.206206
0.206355
0.206503
0.206657
0.206812
0.206966
0.207127
0.207308
0.207526
0.207827
0.208216
0.209115
0.209518
-1.11155
-1.11629
-1.14063
-1.18158
-1.22824
-1.27307
-1.3119
-1.34197
-1.36146
-1.36944
-1.36549
-1.35026
-1.32601
-1.29633
-1.2654
-1.23705
-1.21416
-1.19875
-1.19262
-1.19793
-1.21795
-1.25749
-1.32291
-1.42096
-1.55678
-1.73314
-1.95067
-2.2081
-2.50223
-2.82802
-3.17896
-3.54759
-3.92611
-4.3069
-4.68289
-5.0477
-5.39575
-5.72217
-6.0228
-6.29407
-6.533
-6.7371
-6.9044
-7.03333
-7.1225
-7.1703
-7.17554
-7.13879
-7.06144
-6.94481
-6.78959
-6.59672
-6.36753
-6.10369
-5.80718
-5.48029
-5.12559
-4.74587
-4.34419
-3.92379
-3.48814
-3.04085
-2.5857
-2.12658
-1.66745
-1.21233
-0.765258
-0.330243
0.0887802
0.487991
0.86373
1.21255
1.53129
1.81708
2.06746
2.28038
2.45436
2.58854
2.68236
2.73472
2.74577
2.71768
2.65282
2.55358
2.42298
2.26469
2.08287
1.88211
1.66729
1.4435
1.21592
0.989719
0.769931
0.561348
0.368395
0.194967
0.0444591
-0.0802396
-0.174179
-0.239684
-0.273237
-0.277232
-0.254487
-0.208871
-0.14562
-0.0708471
0.00954831
0.0915653
0.173018
0.235463
0.276489
0.308158
0.331645
0.346259
0.35228
0.35116
0.344544
0.333766
0.320038
0.304567
0.288418
0.272422
0.257172
0.243062
0.230335
0.219117
0.209445
0.201289
0.194573
0.189192
0.185026
0.181943
0.179812
0.178506
0.177902
0.177884
0.178346
0.179188
0.180319
0.181666
0.18316
0.184743
0.18637
0.188003
0.189611
0.191173
0.19267
0.194089
0.19542
0.196655
0.197791
0.198826
0.199762
0.200604
0.201357
0.202029
0.202629
0.203165
0.203643
0.204068
0.204445
0.204775
0.205064
0.205315
0.205535
0.20573
0.205908
0.206075
0.206237
0.206401
0.206568
0.206739
0.206916
0.207104
0.207312
0.207553
0.207874
0.208239
0.209108
0.208996
-1.12824
-1.15259
-1.17892
-1.21362
-1.25255
-1.28973
-1.3211
-1.34406
-1.35707
-1.3594
-1.35144
-1.33478
-1.31194
-1.28612
-1.2608
-1.23941
-1.22541
-1.22274
-1.23627
-1.27184
-1.33579
-1.43386
-1.57003
-1.74565
-1.95926
-2.20703
-2.48378
-2.78396
-3.10235
-3.4343
-3.77566
-4.12259
-4.47129
-4.81786
-5.15825
-5.48833
-5.80397
-6.10113
-6.37602
-6.62514
-6.84536
-7.03391
-7.18849
-7.30719
-7.38851
-7.43127
-7.43486
-7.39941
-7.32528
-7.21283
-7.0626
-6.87546
-6.65261
-6.39558
-6.10622
-5.78667
-5.43938
-5.06704
-4.67258
-4.25918
-3.8302
-3.38918
-2.93982
-2.48592
-2.03139
-1.58018
-1.13626
-0.703569
-0.285996
0.112687
0.488863
0.839121
1.16031
1.44957
1.70444
1.92284
2.10318
2.2444
2.34589
2.40736
2.4293
2.41313
2.36083
2.27475
2.15788
2.0138
1.84657
1.66069
1.46092
1.25226
1.03977
0.828496
0.62333
0.42891
0.249498
0.0888824
-0.0497164
-0.163695
-0.250485
-0.30918
-0.338744
-0.340546
-0.316819
-0.27065
-0.206071
-0.127898
-0.0414994
0.0473972
0.132442
0.204437
0.260799
0.303544
0.332892
0.349474
0.355545
0.353749
0.346303
0.334819
0.320608
0.304841
0.28852
0.272425
0.257121
0.242988
0.230257
0.219044
0.20938
0.201233
0.194525
0.189148
0.18498
0.181891
0.179751
0.178432
0.177812
0.177777
0.178222
0.179047
0.180165
0.181498
0.182981
0.184555
0.186175
0.187802
0.189405
0.190963
0.192457
0.193875
0.195205
0.196441
0.197579
0.198617
0.199557
0.200403
0.20116
0.201837
0.202441
0.202981
0.203463
0.203893
0.204274
0.204611
0.204906
0.205164
0.205391
0.205594
0.205778
0.205952
0.206121
0.206291
0.206465
0.206643
0.206829
0.207024
0.207238
0.207478
0.207784
0.208091
0.208847
0.208308
-1.03816
-1.08742
-1.12139
-1.15752
-1.19552
-1.23089
-1.2603
-1.28191
-1.29484
-1.29926
-1.29645
-1.2885
-1.2781
-1.26848
-1.2634
-1.26713
-1.28468
-1.32179
-1.38461
-1.47887
-1.60868
-1.7756
-1.97817
-2.21248
-2.47325
-2.75502
-3.05293
-3.36304
-3.68221
-4.00779
-4.33732
-4.66826
-4.99786
-5.32317
-5.64099
-5.94801
-6.24088
-6.51624
-6.77086
-7.00165
-7.20576
-7.38058
-7.52384
-7.63354
-7.70803
-7.74604
-7.74677
-7.7099
-7.63533
-7.52325
-7.37409
-7.18862
-6.96792
-6.71341
-6.42683
-6.11023
-5.76593
-5.39654
-5.00492
-4.59417
-4.16756
-3.72859
-3.28089
-2.8282
-2.37438
-1.92332
-1.47895
-1.04517
-0.625827
-0.224671
0.154707
0.508904
0.834766
1.12943
1.39039
1.61552
1.80314
1.95206
2.06156
2.13136
2.16202
2.15496
2.11211
2.03588
1.9292
1.79563
1.63918
1.46428
1.27567
1.07826
0.877052
0.677004
0.482913
0.299302
0.130315
-0.0203915
-0.149745
-0.255319
-0.335137
-0.38802
-0.413701
-0.412966
-0.38761
-0.340247
-0.274314
-0.194021
-0.1043
-0.0107154
0.0807171
0.163025
0.231141
0.282961
0.318398
0.339193
0.348085
0.348015
0.34154
0.330654
0.316913
0.301576
0.285657
0.269937
0.254976
0.241155
0.228704
0.21774
0.208294
0.200336
0.193787
0.188545
0.184489
0.181491
0.179424
0.178163
0.177587
0.177585
0.178052
0.178894
0.180023
0.181364
0.182851
0.184428
0.186049
0.187675
0.189277
0.190833
0.192324
0.193738
0.195065
0.196298
0.197434
0.19847
0.199409
0.200255
0.201013
0.20169
0.202295
0.202835
0.203318
0.203748
0.204131
0.20447
0.204768
0.205029
0.20526
0.205466
0.205654
0.205831
0.206003
0.206174
0.206348
0.206525
0.206708
0.206899
0.207103
0.207324
0.207594
0.207829
0.208449
0.207606
-0.842855
-0.912104
-0.965513
-1.01215
-1.05579
-1.09484
-1.12756
-1.15335
-1.17264
-1.1869
-1.19832
-1.20969
-1.22423
-1.24567
-1.27831
-1.32707
-1.39722
-1.49391
-1.6213
-1.78167
-1.97486
-2.1984
-2.44811
-2.7191
-3.00658
-3.30642
-3.61528
-3.93052
-4.24992
-4.57153
-4.89344
-5.21367
-5.53007
-5.84031
-6.14187
-6.43205
-6.70806
-6.96702
-7.20607
-7.42241
-7.6134
-7.77654
-7.90961
-8.01062
-8.07789
-8.11006
-8.10622
-8.06579
-7.98849
-7.87434
-7.72369
-7.5372
-7.31587
-7.06102
-6.7743
-6.45768
-6.1134
-5.74401
-5.35231
-4.94131
-4.51426
-4.07459
-3.62588
-3.17185
-2.71628
-2.26306
-1.81605
-1.37915
-0.956163
-0.55082
-0.166709
0.192771
0.524452
0.825452
1.09322
1.32559
1.52082
1.67765
1.79528
1.87343
1.91257
1.91413
1.88007
1.81276
1.71515
1.59074
1.44355
1.27799
1.09878
0.910791
0.719
0.528308
0.343449
0.168868
0.00861742
-0.133748
-0.255259
-0.353586
-0.426988
-0.474521
-0.496062
-0.492294
-0.46479
-0.415864
-0.348554
-0.266612
-0.174506
-0.0773856
0.0190194
0.108304
0.184839
0.245309
0.288831
0.316493
0.330711
0.334476
0.330668
0.321673
0.309355
0.295163
0.280206
0.265313
0.25107
0.237873
0.225961
0.215463
0.206416
0.198797
0.192536
0.187535
0.18368
0.180849
0.178918
0.177766
0.177278
0.177345
0.177865
0.178747
0.179906
0.181268
0.18277
0.184357
0.185983
0.187612
0.189214
0.190766
0.192253
0.193662
0.194982
0.196209
0.197339
0.19837
0.199304
0.200146
0.200901
0.201576
0.202179
0.202717
0.203198
0.203626
0.204008
0.204346
0.204643
0.204906
0.205137
0.205345
0.205534
0.20571
0.205881
0.206049
0.206218
0.206389
0.206563
0.20674
0.206925
0.207116
0.207338
0.207497
0.207986
0.206939
-0.566537
-0.660056
-0.738045
-0.801062
-0.85544
-0.902666
-0.943224
-0.9784
-1.01042
-1.04216
-1.0769
-1.11819
-1.1698
-1.23576
-1.32028
-1.4275
-1.56101
-1.72321
-1.91475
-2.13434
-2.37908
-2.64501
-2.92792
-3.22384
-3.52935
-3.84165
-4.15845
-4.47788
-4.79829
-5.11816
-5.43594
-5.75
-6.05852
-6.35951
-6.65078
-6.92995
-7.19454
-7.44197
-7.66965
-7.87503
-8.05562
-8.20909
-8.33331
-8.42634
-8.48655
-8.51254
-8.50336
-8.4583
-8.37699
-8.25934
-8.10561
-7.9164
-7.69263
-7.43555
-7.14675
-6.82813
-6.48189
-6.1105
-5.71672
-5.30354
-4.87414
-4.43192
-3.98042
-3.52331
-3.06436
-2.6074
-2.15629
-1.71488
-1.28697
-0.876259
-0.486342
-0.120618
0.21773
0.525795
0.80099
1.0411
1.24433
1.40937
1.53538
1.62206
1.66984
1.68007
1.65471
1.59608
1.50712
1.39133
1.25273
1.09571
0.925006
0.745491
0.562113
0.37975
0.203093
0.036533
-0.115945
-0.250861
-0.365325
-0.457098
-0.524593
-0.566991
-0.584263
-0.57707
-0.546884
-0.495853
-0.426782
-0.343127
-0.249004
-0.149212
-0.049176
0.0452279
0.12861
0.197129
0.248951
0.284291
0.305033
0.313999
0.314177
0.308209
0.298232
0.285903
0.272473
0.258855
0.245689
0.233403
0.222266
0.212423
0.20393
0.196776
0.190906
0.186232
0.182648
0.180042
0.178295
0.177294
0.176927
0.177089
0.177684
0.178622
0.179824
0.181217
0.182741
0.184342
0.185976
0.187607
0.189208
0.190757
0.192238
0.193638
0.194949
0.196166
0.197286
0.198309
0.199235
0.20007
0.200819
0.201489
0.202087
0.202621
0.203097
0.203521
0.203899
0.204233
0.204529
0.20479
0.20502
0.205227
0.205414
0.205589
0.205755
0.205918
0.206078
0.206238
0.206397
0.206555
0.206714
0.206868
0.207037
0.207121
0.207487
0.206315
-0.25625
-0.373193
-0.478316
-0.561838
-0.630672
-0.6897
-0.74227
-0.791857
-0.842444
-0.898336
-0.963868
-1.04319
-1.14018
-1.25834
-1.40061
-1.56906
-1.7645
-1.98623
-2.23215
-2.49907
-2.78326
-3.08101
-3.38894
-3.70418
-4.02439
-4.34767
-4.67245
-4.99737
-5.32115
-5.64252
-5.96009
-6.27236
-6.57767
-6.87417
-7.15983
-7.43251
-7.68991
-7.92969
-8.14947
-8.34687
-8.5196
-8.66546
-8.78241
-8.86862
-8.92246
-8.94259
-8.92802
-8.87801
-8.79213
-8.67025
-8.51257
-8.31964
-8.09232
-7.83184
-7.53972
-7.21783
-6.86833
-6.49366
-6.09653
-5.67989
-5.24692
-4.80096
-4.34553
-3.88426
-3.4209
-2.95924
-2.50312
-2.05636
-1.62272
-1.20592
-0.809525
-0.436936
-0.0913482
0.224309
0.507416
0.755717
0.967373
1.14101
1.27577
1.37129
1.42798
1.44714
1.43064
1.38079
1.30048
1.19322
1.06302
0.9143
0.751778
0.580346
0.404944
0.230436
0.0614853
-0.0975564
-0.242754
-0.370685
-0.478521
-0.564095
-0.625912
-0.663228
-0.676085
-0.665142
-0.631825
-0.578192
-0.506917
-0.42127
-0.325124
-0.222972
-0.119866
-0.0212036
0.0678835
0.143306
0.202651
0.245475
0.273095
0.287978
0.293009
0.290925
0.284045
0.274209
0.262812
0.250873
0.239105
0.227987
0.217827
0.208801
0.20099
0.194406
0.18901
0.18473
0.181473
0.179135
0.17761
0.176788
0.176565
0.176843
0.177527
0.178535
0.179787
0.181218
0.182767
0.184384
0.186026
0.18766
0.189259
0.190802
0.192273
0.193662
0.194961
0.196165
0.197272
0.198282
0.199197
0.200022
0.200762
0.201424
0.202014
0.202541
0.203011
0.203429
0.203801
0.204131
0.204422
0.20468
0.204907
0.205111
0.205295
0.205465
0.205625
0.20578
0.205929
0.206074
0.206215
0.20635
0.206477
0.206591
0.206705
0.206718
0.20697
0.205734
0.0359716
-0.101752
-0.234844
-0.340872
-0.425248
-0.497567
-0.564611
-0.631903
-0.704912
-0.789074
-0.889399
-1.01014
-1.15457
-1.32487
-1.52198
-1.7455
-1.99369
-2.26376
-2.55222
-2.85541
-3.16982
-3.49241
-3.82066
-4.15252
-4.48638
-4.8209
-5.15488
-5.48724
-5.81685
-6.14253
-6.46297
-6.77674
-7.08223
-7.37768
-7.66122
-7.9308
-8.1843
-8.41953
-8.63426
-8.82629
-8.99343
-9.13362
-9.24493
-9.32559
-9.37404
-9.38897
-9.36941
-9.31461
-9.22412
-9.0978
-8.93582
-8.7387
-8.50729
-8.24277
-7.94666
-7.62079
-7.2673
-6.88861
-6.48741
-6.06663
-5.62941
-5.17909
-4.71914
-4.25319
-3.78493
-3.31814
-2.85661
-2.40415
-1.96449
-1.54132
-1.13819
-0.75851
-0.405462
-0.0819931
0.209254
0.465991
0.686339
0.86888
1.0127
1.1174
1.18333
1.21179
1.20452
1.16377
1.09242
0.993948
0.87237
0.732103
0.577871
0.41457
0.24714
0.0804324
-0.0809095
-0.232564
-0.370634
-0.491737
-0.593093
-0.672582
-0.728767
-0.760952
-0.769229
-0.754266
-0.717474
-0.66086
-0.58702
-0.499101
-0.400799
-0.296351
-0.190481
-0.0882038
0.00560572
0.086845
0.152816
0.202595
0.236973
0.257997
0.268326
0.270664
0.267417
0.260554
0.251597
0.241671
0.231569
0.221834
0.212822
0.204749
0.197727
0.191796
0.18694
0.183106
0.180217
0.178182
0.176903
0.176283
0.176222
0.176628
0.177413
0.178497
0.179806
0.181277
0.182853
0.184486
0.186136
0.18777
0.189364
0.190898
0.192357
0.193731
0.195014
0.196201
0.197292
0.198286
0.199187
0.199999
0.200727
0.201378
0.201959
0.202477
0.202938
0.203349
0.203713
0.204037
0.204322
0.204574
0.204798
0.204996
0.205175
0.205339
0.205492
0.205636
0.205772
0.205901
0.20602
0.206129
0.206224
0.206296
0.206354
0.206301
0.206448
0.205194
0.244097
0.0904358
-0.0603155
-0.182976
-0.278684
-0.361371
-0.441927
-0.527301
-0.623606
-0.736659
-0.871459
-1.03173
-1.21963
-1.43568
-1.67883
-1.94669
-2.23592
-2.54272
-2.86324
-3.19396
-3.53189
-3.8746
-4.22016
-4.56707
-4.91409
-5.26014
-5.60424
-5.94538
-6.28249
-6.61441
-6.93986
-7.25743
-7.56555
-7.86253
-8.14655
-8.41566
-8.66785
-8.90103
-9.1131
-9.30194
-9.4655
-9.60182
-9.70904
-9.78547
-9.82963
-9.84022
-9.81632
-9.7572
-9.66241
-9.53181
-9.36557
-9.16421
-8.92856
-8.65981
-8.35946
-8.02934
-7.67157
-7.28858
-6.88305
-6.45788
-6.01621
-5.56136
-5.09678
-4.62606
-4.15287
-3.68097
-3.2141
-2.75603
-2.31048
-1.88109
-1.47139
-1.08476
-0.724397
-0.39323
-0.0939186
0.171228
0.400301
0.591843
0.744882
0.859005
0.934519
0.972642
0.975012
0.943812
0.881884
0.792682
0.680187
0.548808
0.403261
0.248438
0.0892711
-0.0694011
-0.222957
-0.367102
-0.497968
-0.612205
-0.707059
-0.780442
-0.830949
-0.857915
-0.861466
-0.842282
-0.80177
-0.741914
-0.665261
-0.574872
-0.47431
-0.36761
-0.259225
-0.153853
-0.0560984
0.0300474
0.101766
0.157805
0.198522
0.225556
0.241288
0.248299
0.248999
0.245428
0.239203
0.231539
0.223312
0.21513
0.207403
0.20039
0.194244
0.189033
0.184769
0.181422
0.178932
0.177224
0.176213
0.175808
0.17592
0.176463
0.177355
0.178519
0.179888
0.181401
0.183004
0.184652
0.186307
0.187939
0.189525
0.191045
0.192488
0.193844
0.195107
0.196274
0.197344
0.19832
0.199203
0.199998
0.200712
0.20135
0.201918
0.202425
0.202876
0.203278
0.203634
0.203949
0.204228
0.204473
0.204691
0.204884
0.205056
0.205213
0.205356
0.205488
0.205609
0.20572
0.205817
0.205898
0.205959
0.205989
0.205993
0.20588
0.205931
0.204692
0.319386
0.21393
0.0529746
-0.0853626
-0.191184
-0.285823
-0.381562
-0.486011
-0.60559
-0.74603
-0.911923
-1.10621
-1.3299
-1.5821
-1.86037
-2.16113
-2.48033
-2.81387
-3.158
-3.50957
-3.866
-4.22527
-4.58583
-4.94641
-5.30594
-5.66345
-6.01799
-6.36856
-6.71411
-7.05345
-7.38529
-7.70823
-8.0207
-8.32105
-8.60747
-8.87809
-9.13096
-9.36405
-9.57535
-9.76283
-9.92452
-10.0585
-10.1631
-10.2366
-10.2775
-10.2847
-10.2573
-10.1945
-10.096
-9.96151
-9.79133
-9.58597
-9.34626
-9.07341
-8.76892
-8.43462
-8.07266
-7.68545
-7.27568
-6.84626
-6.40031
-5.94112
-5.47216
-4.99698
-4.51922
-4.04259
-3.57081
-3.1076
-2.65664
-2.22153
-1.80576
-1.41268
-1.04546
-0.70702
-0.400015
-0.126761
0.110814
0.311222
0.473443
0.597052
0.682336
0.7304
0.742763
0.721546
0.669538
0.590139
0.487286
0.365352
0.229029
0.0831869
-0.0672615
-0.217502
-0.362942
-0.499315
-0.622779
-0.730006
-0.818261
-0.885466
-0.930231
-0.951906
-0.95064
-0.927117
-0.88275
-0.819513
-0.73992
-0.646973
-0.544129
-0.435263
-0.324604
-0.216577
-0.115526
-0.0252804
0.0513277
0.112847
0.159304
0.19198
0.212964
0.224665
0.229431
0.229317
0.225998
0.22076
0.214552
0.208046
0.201704
0.195835
0.190629
0.18619
0.182559
0.179729
0.177662
0.176298
0.175566
0.175387
0.17568
0.176365
0.177366
0.178614
0.180042
0.181596
0.183224
0.184884
0.186541
0.188167
0.18974
0.191244
0.192666
0.193999
0.195239
0.196382
0.197429
0.198381
0.199244
0.20002
0.200716
0.201338
0.201892
0.202386
0.202825
0.203216
0.203562
0.203868
0.204138
0.204377
0.204587
0.204772
0.204938
0.205085
0.205218
0.205337
0.205443
0.205534
0.205609
0.205662
0.205689
0.205678
0.205631
0.205463
0.205425
0.204223
0.354855
0.246071
0.104715
-0.0330844
-0.152644
-0.264396
-0.378741
-0.503427
-0.645142
-0.809637
-1.00118
-1.22209
-1.47257
-1.75088
-2.05385
-2.37745
-2.71743
-3.06979
-3.43104
-3.79831
-4.16931
-4.54225
-4.91571
-5.28852
-5.65963
-6.02807
-6.39286
-6.75296
-7.10728
-7.4546
-7.7936
-8.12283
-8.44074
-8.74565
-9.0358
-9.30933
-9.56432
-9.7988
-10.0108
-10.1984
-10.3596
-10.4926
-10.5958
-10.6675
-10.7063
-10.7111
-10.681
-10.6153
-10.5136
-10.3759
-10.2023
-9.99341
-9.75007
-9.4735
-9.16524
-8.82713
-8.46133
-8.07028
-7.65666
-7.22341
-6.77363
-6.31062
-5.83781
-5.35875
-4.87704
-4.39636
-3.92038
-3.45278
-2.99717
-2.5571
-2.13603
-1.73726
-1.36391
-1.01888
-0.704807
-0.423996
-0.178382
0.0305198
0.201662
0.334606
0.42966
0.487749
0.510294
0.499354
0.457648
0.388507
0.2958
0.183842
0.0572747
-0.0790712
-0.220323
-0.361705
-0.498664
-0.62697
-0.742811
-0.842874
-0.92443
-0.985404
-1.0244
-1.04078
-1.03468
-1.00681
-0.958578
-0.89195
-0.809423
-0.713951
-0.60891
-0.498041
-0.385383
-0.275128
-0.171378
-0.0777803
0.00289223
0.0690855
0.120591
0.158391
0.184299
0.200525
0.209311
0.212684
0.212338
0.209609
0.205502
0.200745
0.195854
0.191183
0.186963
0.183332
0.180361
0.17807
0.176442
0.175434
0.17499
0.175042
0.175518
0.176347
0.177459
0.178789
0.180276
0.181867
0.183517
0.185185
0.186841
0.188456
0.190013
0.191494
0.192892
0.194198
0.195409
0.196524
0.197543
0.19847
0.199308
0.200062
0.200738
0.201341
0.201879
0.202358
0.202784
0.203162
0.203497
0.203793
0.204054
0.204284
0.204486
0.204664
0.20482
0.204958
0.20508
0.205185
0.205275
0.205347
0.205398
0.205424
0.205417
0.205367
0.205272
0.205056
0.204937
0.203785
0.334699
0.204902
0.0664879
-0.0664751
-0.188431
-0.308117
-0.434191
-0.573339
-0.731518
-0.913829
-1.12388
-1.36337
-1.63194
-1.92744
-2.24644
-2.58486
-2.93856
-3.30376
-3.67718
-4.05616
-4.43856
-4.82265
-5.20705
-5.59055
-5.97208
-6.35059
-6.72504
-7.09432
-7.45727
-7.81262
-8.159
-8.49493
-8.81881
-9.12898
-9.42365
-9.70098
-9.95906
-10.196
-10.4097
-10.5985
-10.7603
-10.8935
-10.9962
-11.0671
-11.1048
-11.1081
-11.0762
-11.0084
-10.9044
-10.7641
-10.5877
-10.3759
-10.1296
-9.84986
-9.5384
-9.19706
-8.82802
-8.43373
-8.0169
-7.58046
-7.12754
-6.66143
-6.18555
-5.70342
-5.21861
-4.73476
-4.25549
-3.78443
-3.32513
-2.88108
-2.45568
-2.05216
-1.67361
-1.32287
-1.00255
-0.714941
-0.46197
-0.245171
-0.0655834
0.0763627
0.180934
0.24889
0.281576
0.280986
0.24976
0.191139
0.108907
0.00730103
-0.109109
-0.235558
-0.36723
-0.499408
-0.627591
-0.747598
-0.855651
-0.948455
-1.02328
-1.07804
-1.11133
-1.12249
-1.11168
-1.07956
-1.02758
-0.957689
-0.872367
-0.774536
-0.667498
-0.554884
-0.440571
-0.328544
-0.222682
-0.12644
-0.0424925
0.027576
0.0833974
0.125717
0.1561
0.176554
0.189187
0.195962
0.198564
0.19835
0.196365
0.193387
0.189977
0.186532
0.183321
0.180519
0.178226
0.176486
0.175306
0.174661
0.174508
0.174793
0.175453
0.176425
0.177645
0.179053
0.180595
0.18222
0.183887
0.18556
0.187208
0.188808
0.190342
0.191797
0.193164
0.194438
0.195616
0.196699
0.197688
0.198585
0.199395
0.200124
0.200777
0.20136
0.201879
0.202342
0.202752
0.203116
0.203439
0.203724
0.203975
0.204195
0.204388
0.204557
0.204704
0.204832
0.204942
0.205034
0.205107
0.20516
0.205188
0.205187
0.205149
0.205061
0.204922
0.204663
0.204469
0.203373
0.214413
0.10217
-0.0251781
-0.151919
-0.273098
-0.396043
-0.528729
-0.676958
-0.845844
-1.03973
-1.26157
-1.51254
-1.79198
-2.0976
-2.42601
-2.77331
-3.13556
-3.50918
-3.89106
-4.27864
-4.66982
-5.06288
-5.45637
-5.84901
-6.23965
-6.62716
-7.01039
-7.38816
-7.75923
-8.12227
-8.47584
-8.81842
-9.14838
-9.46403
-9.76357
-10.0452
-10.3069
-10.5468
-10.7631
-10.9537
-11.117
-11.251
-11.3543
-11.4252
-11.4625
-11.4651
-11.4322
-11.3631
-11.2576
-11.1155
-10.9372
-10.7232
-10.4746
-10.1925
-9.87865
-9.53486
-9.16338
-8.76667
-8.34747
-7.90873
-7.45358
-6.98531
-6.50731
-6.0231
-5.53622
-5.05026
-4.56878
-4.09536
-3.63348
-3.18657
-2.75794
-2.35078
-1.96809
-1.61268
-1.28711
-0.993622
-0.73415
-0.510221
-0.322837
-0.172423
-0.0588378
0.0185877
0.061136
0.0707279
0.0499129
0.00183719
-0.0698143
-0.160903
-0.266949
-0.383271
-0.505136
-0.627899
-0.747134
-0.858721
-0.958927
-1.04448
-1.11264
-1.16131
-1.18906
-1.19521
-1.17989
-1.14378
-1.08829
-1.0154
-0.927557
-0.827657
-0.718941
-0.604942
-0.489391
-0.376091
-0.26871
-0.170514
-0.0840493
-0.0108857
0.048511
0.0947031
0.12904
0.153332
0.169543
0.179546
0.18499
0.187232
0.187341
0.186128
0.184195
0.181978
0.179783
0.177814
0.176203
0.175018
0.174287
0.174005
0.174143
0.174658
0.175499
0.176609
0.177933
0.179415
0.181006
0.18266
0.184339
0.186009
0.187644
0.189222
0.190728
0.192151
0.193482
0.19472
0.195861
0.196907
0.197861
0.198725
0.199505
0.200205
0.200833
0.201393
0.201892
0.202335
0.202729
0.203079
0.203388
0.20366
0.2039
0.204111
0.204294
0.204454
0.204591
0.204708
0.204806
0.204884
0.204941
0.204975
0.204981
0.204954
0.204885
0.204764
0.204584
0.204285
0.204024
0.202986
0.0669547
-0.0382881
-0.151866
-0.26558
-0.380523
-0.503043
-0.638356
-0.791272
-0.966167
-1.16663
-1.39502
-1.65216
-1.93721
-2.24797
-2.58122
-2.93329
-3.30048
-3.67937
-4.06697
-4.46076
-4.85862
-5.25877
-5.65968
-6.05998
-6.45839
-6.8537
-7.24466
-7.63002
-8.00843
-8.37851
-8.73876
-9.08761
-9.42339
-9.74438
-10.0488
-10.3347
-10.6002
-10.8435
-11.0626
-11.2556
-11.4207
-11.5563
-11.6606
-11.7322
-11.7699
-11.7725
-11.7394
-11.6698
-11.5635
-11.4204
-11.241
-11.0258
-10.7758
-10.4923
-10.1769
-9.83169
-9.45877
-9.06067
-8.64016
-8.20019
-7.74391
-7.27459
-6.79563
-6.3105
-5.82273
-5.33584
-4.85337
-4.3788
-3.91556
-3.46701
-3.03637
-2.62676
-2.24112
-1.88217
-1.55242
-1.25411
-0.989144
-0.758978
-0.564605
-0.406498
-0.284609
-0.198323
-0.146419
-0.127055
-0.137772
-0.175526
-0.236738
-0.31738
-0.413079
-0.519256
-0.631274
-0.744586
-0.854853
-0.958036
-1.05046
-1.12887
-1.19055
-1.23337
-1.25586
-1.25731
-1.23784
-1.19809
-1.13948
-1.06398
-0.974014
-0.872456
-0.762491
-0.647561
-0.531266
-0.417237
-0.308949
-0.209476
-0.121229
-0.0457242
0.016518
0.0659218
0.103653
0.13134
0.150794
0.163785
0.171904
0.176489
0.178615
0.179118
0.17863
0.17762
0.176424
0.17528
0.174343
0.173707
0.173421
0.173495
0.173918
0.174657
0.175672
0.176914
0.178335
0.179884
0.181516
0.183192
0.184875
0.186536
0.18815
0.1897
0.191172
0.192556
0.193846
0.195042
0.196141
0.197147
0.198061
0.198889
0.199635
0.200305
0.200904
0.201439
0.201915
0.202339
0.202715
0.203048
0.203343
0.203603
0.203831
0.20403
0.204204
0.204353
0.204481
0.204587
0.204673
0.204737
0.204778
0.204794
0.204779
0.204727
0.204631
0.204477
0.20426
0.203927
0.203605
0.202623
-0.0845422
-0.1926
-0.288761