/*--------------------------------*- C++ -*----------------------------------*\
  =========                 |
  \\      /  F ield         | OpenFOAM: The Open Source CFD Toolbox
   \\    /   O peration     | Website:  https://openfoam.org
    \\  /    A nd           | Version:  9
     \\/     M anipulation  |
\*---------------------------------------------------------------------------*/
FoamFile
{
    format      ascii;
    class       surfaceScalarField;
    location    "0.05";
    object      phi;
}
// * * * * * * * * * * * * * * * * * * * * * * * * * * * * * * * * * * * * * //

dimensions      [0 3 -1 0 0 0 0];

internalField   nonuniform List<scalar> 
24170
(
3.06143e-07
1.26973e-08
2.64981e-07
4.11622e-08
2.32734e-07
3.22476e-08
2.06503e-07
2.62308e-08
1.85515e-07
2.09877e-08
1.68706e-07
1.68095e-08
1.54037e-07
1.46681e-08
1.40176e-07
1.3861e-08
1.26537e-07
1.3639e-08
1.1295e-07
1.35874e-08
9.9474e-08
1.3476e-08
8.63749e-08
1.30991e-08
7.41959e-08
1.21791e-08
6.39622e-08
1.02337e-08
5.77654e-08
6.19681e-09
6.33462e-08
-5.58078e-09
9.25204e-08
-2.91742e-08
7.61548e-08
1.63656e-08
3.45094e-07
9.32867e-09
3.36029e-07
5.02266e-08
3.19856e-07
4.8421e-08
3.02506e-07
4.3581e-08
2.85406e-07
3.80877e-08
2.68946e-07
3.32694e-08
2.53037e-07
3.05772e-08
2.37235e-07
2.96629e-08
2.2113e-07
2.97436e-08
2.04463e-07
3.02547e-08
1.87149e-07
3.07898e-08
1.69316e-07
3.09318e-08
1.51363e-07
3.0132e-08
1.34161e-07
2.74359e-08
1.19417e-07
2.09409e-08
1.11001e-07
2.83521e-09
9.9684e-08
-1.78573e-08
1.35849e-07
3.99899e-08
3.64375e-07
1.12054e-08
3.65435e-07
4.91667e-08
3.58827e-07
5.50289e-08
3.48443e-07
5.39646e-08
3.35702e-07
5.08292e-08
3.21615e-07
4.73563e-08
3.06813e-07
4.53788e-08
2.91402e-07
4.50746e-08
2.75239e-07
4.59058e-08
2.58144e-07
4.73505e-08
2.39987e-07
4.89461e-08
2.20753e-07
5.01656e-08
2.00574e-07
5.03113e-08
1.79808e-07
4.82019e-08
1.59237e-07
4.15126e-08
1.38407e-07
2.36652e-08
1.06717e-07
1.38327e-08
1.76415e-07
6.61505e-08
3.91502e-07
1.22427e-08
3.93576e-07
4.70927e-08
3.90693e-07
5.79117e-08
3.83963e-07
6.06949e-08
3.74259e-07
6.05332e-08
3.62367e-07
5.92477e-08
3.4897e-07
5.87762e-08
3.34379e-07
5.96658e-08
3.18627e-07
6.16575e-08
3.01621e-07
6.43568e-08
2.83232e-07
6.73346e-08
2.63345e-07
7.00527e-08
2.41867e-07
7.17892e-08
2.18727e-07
7.13419e-08
1.93817e-07
6.64227e-08
1.64556e-07
5.29259e-08
1.24626e-07
5.37629e-08
2.07282e-07
9.37588e-08
4.20473e-07
1.24821e-08
4.22475e-07
4.50904e-08
4.21265e-07
5.9122e-08
4.16681e-07
6.52785e-08
4.09117e-07
6.80981e-08
3.99041e-07
6.93233e-08
3.87005e-07
7.08122e-08
3.73357e-07
7.3314e-08
3.5821e-07
7.68038e-08
3.4153e-07
8.10372e-08
3.23194e-07
8.56711e-08
3.03015e-07
9.02311e-08
2.80736e-07
9.40679e-08
2.55976e-07
9.61019e-08
2.28006e-07
9.43928e-08
1.93777e-07
8.71551e-08
1.5062e-07
9.69205e-08
2.33435e-07
1.24466e-07
4.50901e-07
1.249e-08
4.52748e-07
4.32431e-08
4.52378e-07
5.94924e-08
4.49132e-07
6.85246e-08
4.43087e-07
7.41424e-08
4.34465e-07
7.79456e-08
4.23654e-07
8.16233e-08
4.1096e-07
8.60084e-08
3.96514e-07
9.12497e-08
3.80306e-07
9.72451e-08
3.62215e-07
1.03762e-07
3.42012e-07
1.10435e-07
3.19334e-07
1.16745e-07
2.9362e-07
1.21816e-07
2.63825e-07
1.24188e-07
2.27189e-07
1.23791e-07
1.83527e-07
1.40582e-07
2.57259e-07
1.59704e-07
4.83265e-07
1.24973e-08
4.84893e-07
4.16143e-08
4.8491e-07
5.94761e-08
4.82493e-07
7.09419e-08
4.77524e-07
7.91105e-08
4.70049e-07
8.54216e-08
4.60307e-07
9.13651e-08
4.48532e-07
9.77836e-08
4.34836e-07
1.04945e-07
4.19213e-07
1.12869e-07
4.01538e-07
1.21437e-07
3.81561e-07
1.30411e-07
3.58881e-07
1.39426e-07
3.32868e-07
1.47829e-07
3.02414e-07
1.54642e-07
2.65364e-07
1.60841e-07
2.2314e-07
1.82806e-07
2.79998e-07
2.004e-07
5.17911e-07
1.25444e-08
5.19241e-07
4.02846e-08
5.19368e-07
5.93491e-08
5.17444e-07
7.28658e-08
5.13233e-07
8.33214e-08
5.06659e-07
9.19959e-08
4.97843e-07
1.00181e-07
4.8694e-07
1.08686e-07
4.74029e-07
1.17856e-07
4.59093e-07
1.27805e-07
4.42008e-07
1.38522e-07
4.22528e-07
1.49892e-07
4.0026e-07
1.61694e-07
3.74608e-07
1.73481e-07
3.44579e-07
1.84671e-07
3.08719e-07
1.96702e-07
2.69324e-07
2.222e-07
3.02114e-07
2.47208e-07
5.5505e-07
1.26277e-08
5.56036e-07
3.92987e-08
5.56109e-07
5.92759e-08
5.54459e-07
7.45166e-08
5.50781e-07
8.69992e-08
5.44924e-07
9.78528e-08
5.36919e-07
1.08186e-07
5.26851e-07
1.18754e-07
5.14763e-07
1.29943e-07
5.00626e-07
1.41942e-07
4.84323e-07
1.54824e-07
4.65634e-07
1.68581e-07
4.44221e-07
1.83106e-07
4.19587e-07
1.98115e-07
3.90961e-07
2.13296e-07
3.57547e-07
2.30116e-07
3.21946e-07
2.57801e-07
3.23418e-07
3.00643e-07
5.94863e-07
1.27423e-08
5.95507e-07
3.86549e-08
5.95439e-07
5.93438e-08
5.93924e-07
7.60317e-08
5.90631e-07
9.02925e-08
5.85364e-07
1.03119e-07
5.78092e-07
1.15459e-07
5.68844e-07
1.28002e-07
5.57635e-07
1.41153e-07
5.44428e-07
1.55149e-07
5.29125e-07
1.70127e-07
5.11552e-07
1.86154e-07
4.91456e-07
2.03203e-07
4.68477e-07
2.21094e-07
4.42112e-07
2.39661e-07
4.12089e-07
2.60139e-07
3.80952e-07
2.88938e-07
3.43268e-07
3.61102e-07
6.37543e-07
1.28804e-08
6.37879e-07
3.8319e-08
6.37643e-07
5.95802e-08
6.36193e-07
7.74811e-08
6.33201e-07
9.32847e-08
6.28456e-07
1.07864e-07
6.21883e-07
1.22031e-07
6.13476e-07
1.36409e-07
6.0323e-07
1.51399e-07
5.91114e-07
1.67265e-07
5.77057e-07
1.84184e-07
5.60949e-07
2.02262e-07
5.42636e-07
2.21516e-07
5.21916e-07
2.41815e-07
4.9854e-07
2.63037e-07
4.72608e-07
2.8607e-07
4.46403e-07
3.15144e-07
3.60815e-07
4.28856e-07
5.73961e-07
1.30029e-08
5.7405e-07
3.82296e-08
5.73741e-07
5.98899e-08
5.72561e-07
7.86604e-08
5.70249e-07
9.55966e-08
5.66633e-07
1.11481e-07
5.61632e-07
1.27032e-07
5.55227e-07
1.42814e-07
5.47408e-07
1.59218e-07
5.38162e-07
1.76511e-07
5.27459e-07
1.94886e-07
5.15261e-07
2.14461e-07
5.01519e-07
2.35258e-07
4.86177e-07
2.57157e-07
4.69199e-07
2.80015e-07
4.50867e-07
3.04402e-07
4.32839e-07
3.33172e-07
3.73089e-07
4.20564e-07
6.9967e-07
1.3148e-08
6.99635e-07
3.82655e-08
6.99197e-07
6.03279e-08
6.97926e-07
7.99305e-08
6.95555e-07
9.7968e-08
6.91896e-07
1.1514e-07
6.86856e-07
1.32072e-07
6.80404e-07
1.49266e-07
6.72536e-07
1.67086e-07
6.63255e-07
1.85792e-07
6.52571e-07
2.0557e-07
6.405e-07
2.26531e-07
6.27079e-07
2.4868e-07
6.12356e-07
2.71879e-07
5.96439e-07
2.95932e-07
5.79759e-07
3.21082e-07
5.63936e-07
3.48995e-07
3.83629e-07
5.53396e-07
8.52943e-07
1.32897e-08
8.52826e-07
3.83829e-08
8.5234e-07
6.08134e-08
8.51109e-07
8.11614e-08
8.48877e-07
1.002e-07
8.45461e-07
1.18556e-07
8.40766e-07
1.36767e-07
8.34764e-07
1.55268e-07
8.27468e-07
1.74383e-07
8.18915e-07
1.94345e-07
8.09174e-07
2.15312e-07
7.98341e-07
2.37364e-07
7.86551e-07
2.60469e-07
7.73977e-07
2.84453e-07
7.60856e-07
3.09053e-07
7.47718e-07
3.3422e-07
7.36006e-07
3.60707e-07
3.90535e-07
7.291e-07
1.03984e-06
1.33733e-08
1.03979e-06
3.84347e-08
1.03949e-06
6.11145e-08
1.03861e-06
8.20324e-08
1.03694e-06
1.0187e-07
1.03432e-06
1.21185e-07
1.03065e-06
1.40433e-07
1.02594e-06
1.59979e-07
1.02023e-06
1.80092e-07
1.01362e-06
2.00957e-07
1.00624e-06
2.22688e-07
9.98292e-07
2.45312e-07
9.90011e-07
2.68751e-07
9.81674e-07
2.9279e-07
9.73618e-07
3.1711e-07
9.66381e-07
3.41457e-07
9.6112e-07
3.65967e-07
3.9143e-07
9.60225e-07
1.26776e-06
1.32949e-08
1.26809e-06
3.81001e-08
1.26847e-06
6.07389e-08
1.26861e-06
8.18893e-08
1.26832e-06
1.02161e-07
1.26747e-06
1.22037e-07
1.26601e-06
1.41894e-07
1.26397e-06
1.6202e-07
1.26144e-06
1.82613e-07
1.2586e-06
2.038e-07
1.25566e-06
2.25631e-07
1.25289e-06
2.4808e-07
1.25062e-06
2.71021e-07
1.2492e-06
2.94215e-07
1.24898e-06
3.17323e-07
1.25045e-06
3.39992e-07
1.2544e-06
3.6202e-07
3.83506e-07
1.26232e-06
1.54575e-06
1.2866e-08
1.54704e-06
3.68032e-08
1.54899e-06
5.87958e-08
1.55131e-06
7.95622e-08
1.55383e-06
9.96445e-08
1.55643e-06
1.1944e-07
1.55909e-06
1.39236e-07
1.56187e-06
1.59231e-07
1.56494e-06
1.79549e-07
1.5685e-06
2.00243e-07
1.57282e-06
2.21302e-07
1.57825e-06
2.42651e-07
1.58514e-06
2.64134e-07
1.59384e-06
2.85517e-07
1.60468e-06
3.06484e-07
1.61799e-06
3.26681e-07
1.63421e-06
3.45794e-07
3.63628e-07
1.65409e-06
1.88486e-06
1.1768e-08
1.88805e-06
3.36153e-08
1.893e-06
5.38456e-08
1.89938e-06
7.318e-08
1.90695e-06
9.20756e-08
1.91557e-06
1.1082e-07
1.92521e-06
1.29594e-07
1.93595e-06
1.48496e-07
1.94793e-06
1.67562e-07
1.96141e-06
1.86772e-07
1.97665e-06
2.06061e-07
1.99398e-06
2.2532e-07
2.01372e-06
2.44389e-07
2.03618e-06
2.63061e-07
2.06158e-06
2.8108e-07
2.0901e-06
2.98162e-07
2.12187e-06
3.14022e-07
3.28422e-07
2.15708e-06
2.29862e-06
9.48413e-09
2.3051e-06
2.7136e-08
2.31518e-06
4.37592e-08
2.32833e-06
6.00358e-08
2.34411e-06
7.62901e-08
2.36228e-06
9.26563e-08
2.3827e-06
1.09173e-07
2.40538e-06
1.25816e-07
2.43042e-06
1.42518e-07
2.458e-06
1.59189e-07
2.48835e-06
1.75719e-07
2.52168e-06
1.91982e-07
2.55824e-06
2.07835e-07
2.59818e-06
2.23117e-07
2.64161e-06
2.37649e-07
2.68853e-06
2.51245e-07
2.73884e-06
2.63716e-07
2.749e-07
2.79236e-06
1.68338e-06
7.17657e-09
1.6899e-06
2.0615e-08
1.7e-06
3.36596e-08
1.71306e-06
4.69761e-08
1.72862e-06
6.07283e-08
1.74639e-06
7.48894e-08
1.76619e-06
8.93672e-08
1.78798e-06
1.04028e-07
1.81178e-06
1.18725e-07
1.83765e-06
1.33316e-07
1.8657e-06
1.4767e-07
1.89602e-06
1.61659e-07
1.9287e-06
1.75154e-07
1.96379e-06
1.8803e-07
2.00128e-06
2.00157e-07
2.04112e-06
2.11407e-07
2.08318e-06
2.21658e-07
2.30807e-07
2.12727e-06
1.46585e-06
4.78674e-09
1.47272e-06
1.37375e-08
1.4833e-06
2.30854e-08
1.49679e-06
3.34884e-08
1.51266e-06
4.48552e-08
1.53058e-06
5.6964e-08
1.55037e-06
6.95794e-08
1.57195e-06
8.245e-08
1.59532e-06
9.53507e-08
1.62054e-06
1.081e-07
1.64766e-06
1.20553e-07
1.67673e-06
1.32583e-07
1.7078e-06
1.44083e-07
1.74088e-06
1.54954e-07
1.77593e-06
1.65104e-07
1.81289e-06
1.74448e-07
1.85164e-06
1.82908e-07
1.90424e-07
1.89202e-06
1.27629e-06
2.51368e-09
1.28316e-06
6.85955e-09
1.29364e-06
1.26145e-08
1.30675e-06
2.03772e-08
1.32195e-06
2.96534e-08
1.3389e-06
4.0009e-08
1.35743e-06
5.10559e-08
1.37747e-06
6.2411e-08
1.39904e-06
7.37754e-08
1.4222e-06
8.49408e-08
1.447e-06
9.57576e-08
1.47347e-06
1.06114e-07
1.50163e-06
1.15921e-07
1.53147e-06
1.25108e-07
1.56296e-06
1.33615e-07
1.59602e-06
1.41387e-07
1.63055e-06
1.4838e-07
1.54564e-07
1.66641e-06
1.11103e-06
5.73473e-10
1.11769e-06
2.06333e-10
1.12769e-06
2.61314e-09
1.13992e-06
8.14197e-09
1.15387e-06
1.57083e-08
1.1692e-06
2.46804e-08
1.18575e-06
3.44977e-08
1.20354e-06
4.46257e-08
1.22261e-06
5.47019e-08
1.24305e-06
6.45089e-08
1.26489e-06
7.39092e-08
1.2882e-06
8.28117e-08
1.31296e-06
9.11547e-08
1.33917e-06
9.88951e-08
1.36679e-06
1.06e-07
1.39573e-06
1.12443e-07
1.42591e-06
1.18204e-07
1.23273e-07
1.4572e-06
9.66939e-07
-8.44468e-10
9.73239e-07
-6.0936e-09
9.82551e-07
-6.69823e-09
9.93605e-07
-2.91227e-09
1.00594e-06
3.37612e-09
1.01924e-06
1.13812e-08
1.03342e-06
2.03178e-08
1.04856e-06
2.94796e-08
1.0648e-06
3.84667e-08
1.08223e-06
4.70799e-08
1.10092e-06
5.5214e-08
1.12092e-06
6.2812e-08
1.14223e-06
6.9845e-08
1.16483e-06
7.62998e-08
1.18866e-06
8.217e-08
1.21365e-06
8.74518e-08
1.23971e-06
9.21442e-08
9.62517e-08
1.26673e-06
8.41235e-07
-1.5439e-09
8.47219e-07
-1.20782e-08
8.55672e-07
-1.51508e-08
8.65295e-07
-1.2535e-08
8.75706e-07
-7.03523e-09
8.86639e-07
4.48199e-10
8.98136e-07
8.82046e-09
9.10414e-07
1.72019e-08
9.23669e-07
2.52119e-08
9.38042e-07
3.27069e-08
9.53614e-07
3.96417e-08
9.70417e-07
4.60086e-08
9.88445e-07
5.18172e-08
1.00766e-06
5.70846e-08
1.028e-06
6.18282e-08
1.04939e-06
6.60622e-08
1.07174e-06
6.98005e-08
7.30562e-08
1.09493e-06
7.31249e-07
-1.06412e-09
7.37251e-07
-1.80806e-08
7.44677e-07
-2.25773e-08
7.52522e-07
-2.03793e-08
7.60591e-07
-1.51044e-08
7.68762e-07
-7.7231e-09
7.7729e-07
2.92591e-10
7.86553e-07
7.93918e-09
7.96811e-07
1.49536e-08
8.08225e-07
2.12934e-08
8.2086e-07
2.70066e-08
8.34723e-07
3.21459e-08
8.4978e-07
3.676e-08
8.65972e-07
4.08926e-08
8.83222e-07
4.45783e-08
9.01442e-07
4.78422e-08
9.20534e-07
5.07084e-08
5.31938e-08
9.40396e-07
6.34291e-07
1.65168e-09
6.4105e-07
-2.48403e-08
6.47073e-07
-2.85997e-08
6.52523e-07
-2.58293e-08
6.57585e-07
-2.01668e-08
6.62469e-07
-1.2607e-08
6.6775e-07
-4.98778e-09
6.73927e-07
1.7623e-09
6.81288e-07
7.59163e-09
6.89967e-07
1.26147e-08
6.99968e-07
1.70056e-08
7.11243e-07
2.08711e-08
7.23714e-07
2.42887e-08
7.37291e-07
2.73159e-08
7.51876e-07
2.99931e-08
7.67371e-07
3.23477e-08
7.83674e-07
3.44053e-08
3.61873e-08
8.00681e-07
5.49335e-07
6.86321e-09
5.56969e-07
-3.24742e-08
5.5997e-07
-3.16011e-08
5.61596e-07
-2.74547e-08
5.62506e-07
-2.10772e-08
5.63404e-07
-1.35053e-08
5.65163e-07
-6.74648e-09
5.68302e-07
-1.37653e-09
5.72993e-07
2.90053e-09
5.79275e-07
6.33282e-09
5.87019e-07
9.26129e-09
5.96093e-07
1.17972e-08
6.06364e-07
1.40176e-08
6.17709e-07
1.59711e-08
6.30012e-07
1.76897e-08
6.43166e-07
1.91936e-08
6.57073e-07
2.0499e-08
2.16292e-08
6.71631e-07
4.85865e-07
3.75922e-09
4.84849e-07
-3.1458e-08
4.79037e-07
-2.57894e-08
4.7242e-07
-2.08375e-08
4.66741e-07
-1.53982e-08
4.62639e-07
-9.40415e-09
4.6071e-07
-4.81672e-09
4.6101e-07
-1.67636e-09
4.63388e-07
5.22306e-10
4.67656e-07
2.06428e-09
4.73479e-07
3.43896e-09
4.80634e-07
4.6419e-09
4.88948e-07
5.70318e-09
4.98281e-07
6.63825e-09
5.08511e-07
7.46026e-09
5.19525e-07
8.17936e-09
5.31229e-07
8.79513e-09
9.31868e-09
5.43539e-07
4.24027e-07
3.92569e-07
3.66779e-07
3.45942e-07
3.30544e-07
3.2114e-07
3.16323e-07
3.14647e-07
3.15169e-07
3.17233e-07
3.20672e-07
3.25314e-07
3.31017e-07
3.37655e-07
3.45116e-07
3.53295e-07
3.6209e-07
3.71409e-07
7.86857e-08
-7.86857e-08
2.09828e-07
-1.31142e-07
3.51386e-07
-1.41558e-07
4.84952e-07
-1.33566e-07
6.02118e-07
-1.17167e-07
6.98919e-07
-9.68003e-08
7.73605e-07
-7.46861e-08
8.25634e-07
-5.20287e-08
8.55095e-07
-2.94618e-08
8.62833e-07
-7.73811e-09
8.48271e-07
1.45621e-08
8.14104e-07
3.4167e-08
7.6507e-07
4.90344e-08
7.06499e-07
5.85704e-08
6.43338e-07
6.31616e-08
5.79245e-07
6.40925e-08
5.15967e-07
6.32781e-08
4.52979e-07
6.29878e-08
3.87641e-07
6.53381e-08
3.15757e-07
7.18843e-08
2.32136e-07
8.36215e-08
1.31047e-07
1.01089e-07
7.00777e-09
1.24039e-07
-1.45603e-07
1.52611e-07
-3.3136e-07
1.85757e-07
-5.51581e-07
2.20221e-07
-8.04318e-07
2.52737e-07
-1.0846e-06
2.80286e-07
-1.38542e-06
3.00813e-07
-1.69874e-06
3.13321e-07
-2.01645e-06
3.17707e-07
-2.33098e-06
3.14536e-07
-2.63581e-06
3.04823e-07
-2.92562e-06
2.89816e-07
-3.19645e-06
2.70825e-07
-3.44552e-06
2.49076e-07
-3.67118e-06
2.25654e-07
-3.87262e-06
2.01449e-07
-4.04976e-06
1.77139e-07
-4.20296e-06
1.53199e-07
-4.33289e-06
1.2993e-07
-4.44039e-06
1.07494e-07
-4.52634e-06
8.59569e-08
-4.59165e-06
6.53105e-08
-4.63715e-06
4.54968e-08
-4.66365e-06
2.64961e-08
-4.67206e-06
8.40949e-09
-4.66458e-06
-7.47844e-09
-4.64368e-06
-2.09005e-08
-4.61079e-06
-3.28908e-08
-4.56676e-06
-4.40256e-08
-4.51213e-06
-5.46323e-08
-4.44723e-06
-6.48977e-08
-4.37233e-06
-7.49057e-08
-4.28763e-06
-8.46968e-08
-4.19334e-06
-9.42858e-08
-4.08967e-06
-1.03675e-07
-3.97681e-06
-1.12857e-07
-3.85499e-06
-1.21821e-07
-3.72444e-06
-1.30553e-07
-3.5854e-06
-1.39034e-07
-3.43816e-06
-1.47246e-07
-3.28299e-06
-1.55166e-07
-3.12022e-06
-1.62773e-07
-2.95018e-06
-1.7004e-07
-2.77324e-06
-1.76942e-07
-2.58978e-06
-1.83452e-07
-2.40024e-06
-1.89541e-07
-2.20507e-06
-1.95177e-07
-2.00474e-06
-2.00328e-07
-1.79978e-06
-2.04962e-07
-1.59073e-06
-2.09043e-07
-1.3782e-06
-2.12535e-07
-1.1628e-06
-2.15397e-07
-9.45221e-07
-2.17579e-07
-7.262e-07
-2.19021e-07
-5.06569e-07
-2.19631e-07
-2.8736e-07
-2.19208e-07
-7.02816e-08
-2.17079e-07
1.4451e-07
-2.14792e-07
3.57123e-07
-2.12612e-07
5.66028e-07
-2.08906e-07
7.7003e-07
-2.04002e-07
9.68126e-07
-1.98096e-07
1.15935e-06
-1.91226e-07
1.34277e-06
-1.83414e-07
1.51744e-06
-1.74675e-07
1.68247e-06
-1.65026e-07
1.83696e-06
-1.5449e-07
1.98005e-06
-1.43094e-07
2.11092e-06
-1.30869e-07
2.22876e-06
-1.17841e-07
2.33279e-06
-1.04032e-07
2.42221e-06
-8.94128e-08
2.49604e-06
-7.3835e-08
2.55321e-06
-5.71716e-08
2.59165e-06
-3.84386e-08
2.60692e-06
-1.52708e-08
2.58942e-06
1.74987e-08
2.53827e-06
5.11557e-08
2.45333e-06
8.49397e-08
2.33576e-06
1.17563e-07
2.18858e-06
1.47189e-07
2.01734e-06
1.71234e-07
1.83053e-06
1.86813e-07
1.63931e-06
1.91221e-07
1.45724e-06
1.82069e-07
1.29827e-06
1.5897e-07
1.15995e-06
1.38318e-07
1.04175e-06
1.18202e-07
9.49006e-07
9.27428e-08
8.74684e-07
7.43221e-08
8.10296e-07
6.4388e-08
7.47158e-07
6.31383e-08
6.8245e-07
6.47076e-08
6.17216e-07
6.52335e-08
5.53739e-07
6.34778e-08
4.94164e-07
5.9575e-08
4.3988e-07
5.42838e-08
3.91419e-07
4.84606e-08
3.48666e-07
4.27529e-08
3.11162e-07
3.7504e-08
2.78359e-07
3.28034e-08
2.49753e-07
2.86065e-08
2.24916e-07
2.48366e-08
2.03484e-07
2.14318e-08
1.85133e-07
1.83509e-08
1.69566e-07
1.55671e-08
1.56507e-07
1.30595e-08
1.45697e-07
1.08097e-08
1.36896e-07
8.80062e-09
1.2988e-07
7.01594e-09
1.2444e-07
5.44073e-09
1.20378e-07
4.06194e-09
1.17509e-07
2.86843e-09
1.15657e-07
1.85219e-09
1.14648e-07
1.00941e-09
1.14351e-07
2.9683e-10
1.14621e-07
-2.69998e-10
1.15356e-07
-7.35339e-10
1.16469e-07
-1.11325e-09
1.17882e-07
-1.41314e-09
1.1953e-07
-1.64772e-09
1.21358e-07
-1.82734e-09
1.23317e-07
-1.95916e-09
1.25363e-07
-2.04678e-09
1.27455e-07
-2.09137e-09
1.29549e-07
-2.09431e-09
1.31609e-07
-2.05991e-09
1.33605e-07
-1.99628e-09
1.35519e-07
-1.91376e-09
1.37342e-07
-1.82263e-09
1.39073e-07
-1.73112e-09
1.40718e-07
-1.64478e-09
1.42284e-07
-1.56638e-09
1.4378e-07
-1.49576e-09
1.45209e-07
-1.42899e-09
1.46567e-07
-1.35861e-09
1.47844e-07
-1.27649e-09
1.49022e-07
-1.17841e-09
1.50089e-07
-1.06658e-09
1.51037e-07
-9.48037e-10
1.51868e-07
-8.30764e-10
1.52588e-07
-7.20365e-10
1.53207e-07
-6.18751e-10
1.53731e-07
-5.24631e-10
1.54165e-07
-4.33883e-10
1.54503e-07
-3.38169e-10
1.54727e-07
-2.23259e-10
1.54802e-07
-7.48777e-11
1.5466e-07
1.41596e-10
1.54256e-07
4.04076e-10
1.53548e-07
7.08441e-10
1.52482e-07
1.06583e-09
1.51003e-07
1.47819e-09
1.49046e-07
1.95766e-09
1.46527e-07
2.51929e-09
1.43234e-07
3.29239e-09
1.3871e-07
4.52376e-09
9.84928e-09
1.28861e-07
1.41886e-07
-2.20572e-07
2.71149e-07
-2.60405e-07
3.73179e-07
-2.43588e-07
4.5274e-07
-2.13127e-07
5.12711e-07
-1.77138e-07
5.54676e-07
-1.38765e-07
5.79774e-07
-9.97837e-08
5.89041e-07
-6.12952e-08
5.83625e-07
-2.40459e-08
5.64382e-07
1.15045e-08
5.33806e-07
4.5138e-08
4.91563e-07
7.641e-08
4.36279e-07
1.04319e-07
3.66896e-07
1.27953e-07
2.82621e-07
1.47437e-07
1.82388e-07
1.64325e-07
6.42729e-08
1.81393e-07
-7.46148e-08
2.01876e-07
-2.37846e-07
2.28569e-07
-4.29212e-07
2.63251e-07
-6.51793e-07
3.06203e-07
-9.0673e-07
3.56026e-07
-1.19245e-06
4.0976e-07
-1.50327e-06
4.6343e-07
-1.83028e-06
5.12769e-07
-2.1638e-06
5.5374e-07
-2.49411e-06
5.8305e-07
-2.81252e-06
5.98692e-07
-3.11187e-06
6.0016e-07
-3.38683e-06
5.88287e-07
-3.63401e-06
5.64888e-07
-3.85184e-06
5.32361e-07
-4.04031e-06
4.933e-07
-4.20068e-06
4.50181e-07
-4.33501e-06
4.05156e-07
-4.44587e-06
3.59936e-07
-4.53598e-06
3.15766e-07
-4.608e-06
2.73464e-07
-4.66435e-06
2.33488e-07
-4.70717e-06
1.9602e-07
-4.73829e-06
1.61047e-07
-4.75923e-06
1.28437e-07
-4.77127e-06
9.79964e-08
-4.77547e-06
6.95119e-08
-4.77277e-06
4.27978e-08
-4.76401e-06
1.77392e-08
-4.74983e-06
-5.77766e-09
-4.72913e-06
-2.81793e-08
-4.70018e-06
-4.98503e-08
-4.66198e-06
-7.10898e-08
-4.61414e-06
-9.18609e-08
-4.55658e-06
-1.12193e-07
-4.48935e-06
-1.32129e-07
-4.41256e-06
-1.51695e-07
-4.32635e-06
-1.70905e-07
-4.23088e-06
-1.89757e-07
-4.12631e-06
-2.0824e-07
-4.01284e-06
-2.26331e-07
-3.89066e-06
-2.44004e-07
-3.75998e-06
-2.61225e-07
-3.62106e-06
-2.77958e-07
-3.47415e-06
-2.9416e-07
-3.31952e-06
-3.09789e-07
-3.1575e-06
-3.24797e-07
-2.98841e-06
-3.39133e-07
-2.81261e-06
-3.52743e-07
-2.63049e-06
-3.65572e-07
-2.44247e-06
-3.77559e-07
-2.24901e-06
-3.88641e-07
-2.05058e-06
-3.98752e-07
-1.84772e-06
-4.07823e-07
-1.64098e-06
-4.15781e-07
-1.43097e-06
-4.22551e-07
-1.21831e-06
-4.28053e-07
-1.00369e-06
-4.32202e-07
-7.87808e-07
-4.34904e-07
-5.71397e-07
-4.36043e-07
-3.55145e-07
-4.3546e-07
-1.39239e-07
-4.32985e-07
7.48617e-08
-4.28893e-07
2.85509e-07
-4.2326e-07
4.92285e-07
-4.15681e-07
6.94399e-07
-4.06117e-07
8.9095e-07
-3.94647e-07
1.08102e-06
-3.81293e-07
1.26367e-06
-3.6607e-07
1.438e-06
-3.49004e-07
1.60311e-06
-3.30133e-07
1.75813e-06
-3.0951e-07
1.90223e-06
-2.87195e-07
2.03462e-06
-2.63257e-07
2.15454e-06
-2.37764e-07
2.26128e-06
-2.10771e-07
2.35417e-06
-1.82304e-07
2.43268e-06
-1.5234e-07
2.49637e-06
-1.20864e-07
2.54564e-06
-8.77074e-08
2.58266e-06
-5.22896e-08
2.61166e-06
-1.15063e-08
2.62985e-06
3.29716e-08
2.63217e-06
8.26116e-08
2.61413e-06
1.35609e-07
2.57118e-06
1.9014e-07
2.4995e-06
2.42909e-07
2.39711e-06
2.8921e-07
2.26486e-06
3.23462e-07
2.10627e-06
3.40666e-07
1.92522e-06
3.4002e-07
1.73449e-06
3.29046e-07
1.54779e-06
3.049e-07
1.37219e-06
2.68339e-07
1.21643e-06
2.30084e-07
1.08286e-06
1.97961e-07
9.69891e-07
1.76108e-07
8.72201e-07
1.62397e-07
7.85014e-07
1.5242e-07
7.05586e-07
1.42906e-07
6.32836e-07
1.32326e-07
5.66569e-07
1.2055e-07
5.0686e-07
1.0817e-07
4.53707e-07
9.59054e-08
4.06923e-07
8.42882e-08
3.6614e-07
7.35868e-08
3.30874e-07
6.38718e-08
3.00598e-07
5.51127e-08
2.74785e-07
4.72449e-08
2.52937e-07
4.01995e-08
2.34593e-07
3.39104e-08
2.19338e-07
2.83147e-08
2.06796e-07
2.33522e-08
1.9663e-07
1.89665e-08
1.8854e-07
1.51058e-08
1.82257e-07
1.1724e-08
1.77538e-07
8.78112e-09
1.74163e-07
6.24273e-09
1.71937e-07
4.07875e-09
1.70686e-07
2.26044e-09
1.70235e-07
7.47644e-10
1.70457e-07
-4.92178e-10
1.71217e-07
-1.4956e-09
1.72403e-07
-2.29944e-09
1.73924e-07
-2.93388e-09
1.75703e-07
-3.42626e-09
1.77674e-07
-3.79899e-09
1.79784e-07
-4.06859e-09
1.81983e-07
-4.24572e-09
1.84228e-07
-4.33678e-09
1.86481e-07
-4.34754e-09
1.88709e-07
-4.28701e-09
1.90881e-07
-4.16905e-09
1.92979e-07
-4.01118e-09
1.94988e-07
-3.83143e-09
1.96902e-07
-3.64535e-09
1.98721e-07
-3.4642e-09
2.00449e-07
-3.2943e-09
2.0209e-07
-3.13646e-09
2.03646e-07
-2.98528e-09
2.05117e-07
-2.82987e-09
2.06499e-07
-2.65802e-09
2.07783e-07
-2.46234e-09
2.08961e-07
-2.2443e-09
2.10026e-07
-2.01314e-09
2.10976e-07
-1.78097e-09
2.11813e-07
-1.55756e-09
2.12541e-07
-1.34723e-09
2.13165e-07
-1.14844e-09
2.13685e-07
-9.53808e-10
2.14096e-07
-7.48661e-10
2.14382e-07
-5.09981e-10
2.14515e-07
-2.07595e-10
2.14475e-07
1.8161e-10
2.14214e-07
6.65107e-10
2.13677e-07
1.2453e-09
2.12818e-07
1.92488e-09
2.11588e-07
2.70869e-09
2.09933e-07
3.61215e-09
2.07778e-07
4.6741e-09
2.05078e-07
5.99268e-09
2.01384e-07
8.2175e-09
1.40763e-08
1.97157e-07
1.16156e-07
-3.36728e-07
1.99217e-07
-3.43466e-07
2.56186e-07
-3.00557e-07
2.9362e-07
-2.50561e-07
3.1471e-07
-1.98227e-07
3.21067e-07
-1.45122e-07
3.13535e-07
-9.22516e-08
2.92579e-07
-4.03393e-08
2.58449e-07
1.00839e-08
2.11154e-07
5.87996e-08
1.50561e-07
1.0573e-07
7.61141e-08
1.50857e-07
-1.36734e-08
1.94106e-07
-1.21315e-07
2.35594e-07
-2.50084e-07
2.76206e-07
-4.03584e-07
3.17826e-07
-5.85052e-07
3.62861e-07
-7.96596e-07
4.1342e-07
-1.03846e-06
4.70431e-07
-1.30827e-06
5.33062e-07
-1.60068e-06
5.98616e-07
-1.90755e-06
6.62893e-07
-2.2188e-06
7.21007e-07
-2.52373e-06
7.68358e-07
-2.8124e-06
8.01445e-07
-3.07697e-06
8.18305e-07
-3.3125e-06
8.18587e-07
-3.51718e-06
8.03368e-07
-3.69181e-06
7.74787e-07
-3.83912e-06
7.35598e-07
-3.96297e-06
6.88739e-07
-4.0676e-06
6.3699e-07
-4.15704e-06
5.82741e-07
-4.23474e-06
5.27884e-07
-4.30338e-06
4.73794e-07
-4.36483e-06
4.21386e-07
-4.42025e-06
3.71191e-07
-4.47024e-06
3.2345e-07
-4.51495e-06
2.78196e-07
-4.55426e-06
2.35329e-07
-4.58788e-06
1.94669e-07
-4.61544e-06
1.55998e-07
-4.63652e-06
1.19082e-07
-4.65071e-06
8.36971e-08
-4.65754e-06
4.96314e-08
-4.65649e-06
1.66901e-08
-4.64693e-06
-1.53436e-08
-4.62837e-06
-4.67389e-08
-4.60056e-06
-7.76609e-08
-4.5635e-06
-1.0815e-07
-4.51716e-06
-1.38199e-07
-4.46154e-06
-1.67813e-07
-4.39668e-06
-1.96993e-07
-4.32264e-06
-2.25734e-07
-4.23952e-06
-2.5402e-07
-4.14745e-06
-2.81829e-07
-4.04657e-06
-3.09126e-07
-3.93703e-06
-3.3587e-07
-3.81902e-06
-3.62014e-07
-3.69274e-06
-3.87505e-07
-3.55841e-06
-4.12283e-07
-3.41629e-06
-4.36284e-07
-3.26664e-06
-4.59442e-07
-3.10975e-06
-4.81683e-07
-2.94595e-06
-5.02932e-07
-2.77559e-06
-5.23107e-07
-2.59904e-06
-5.42122e-07
-2.41671e-06
-5.59888e-07
-2.22904e-06
-5.76308e-07
-2.03651e-06
-5.91282e-07
-1.83963e-06
-6.04705e-07
-1.63894e-06
-6.16468e-07
-1.43504e-06
-6.26456e-07
-1.22854e-06
-6.34551e-07
-1.02011e-06
-6.40629e-07
-8.10449e-07
-6.44564e-07
-6.00269e-07
-6.46223e-07
-3.90258e-07
-6.45471e-07
-1.81037e-07
-6.42206e-07
2.64713e-08
-6.36401e-07
2.31191e-07
-6.2798e-07
4.32295e-07
-6.16784e-07
6.28964e-07
-6.02786e-07
8.20298e-07
-5.8598e-07
1.00537e-06
-5.66369e-07
1.18328e-06
-5.43972e-07
1.3531e-06
-5.18833e-07
1.51399e-06
-4.91014e-07
1.66508e-06
-4.606e-07
1.80557e-06
-4.27693e-07
1.93472e-06
-3.92405e-07
2.05181e-06
-3.54853e-07
2.15619e-06
-3.1515e-07
2.24728e-06
-2.73394e-07
2.3246e-06
-2.29661e-07
2.38774e-06
-1.84003e-07
2.43646e-06
-1.36425e-07
2.47088e-06
-8.67114e-08
2.4933e-06
-3.39286e-08
2.50388e-06
2.2397e-08
2.50357e-06
8.2917e-08
2.4919e-06
1.47277e-07
2.46758e-06
2.14466e-07
2.42814e-06
2.82344e-07
2.37009e-06
3.47265e-07
2.28941e-06
4.04136e-07
2.18271e-06
4.47371e-07
2.04957e-06
4.73158e-07
1.8974e-06
4.81216e-07
1.73219e-06
4.70104e-07
1.55993e-06
4.40609e-07
1.39115e-06
3.98858e-07
1.23525e-06
3.53862e-07
1.09782e-06
3.13537e-07
9.79196e-07
2.81023e-07
8.76558e-07
2.55058e-07
7.86609e-07
2.32855e-07
7.06815e-07
2.12119e-07
6.35625e-07
1.9174e-07
5.72189e-07
1.71606e-07
5.16013e-07
1.52082e-07
4.66694e-07
1.33607e-07
4.23788e-07
1.16492e-07
3.86774e-07
1.00886e-07
3.55078e-07
8.68084e-08
3.28123e-07
7.41999e-08
3.05358e-07
6.29649e-08
2.86275e-07
5.29926e-08
2.70421e-07
4.41694e-08
2.57387e-07
3.63856e-08
2.46815e-07
2.95387e-08
2.38385e-07
2.35362e-08
2.31813e-07
1.82961e-08
2.26846e-07
1.37474e-08
2.23261e-07
9.82846e-09
2.20854e-07
6.48499e-09
2.19449e-07
3.66604e-09
2.18879e-07
1.31765e-09
2.19e-07
-6.13393e-10
2.19683e-07
-2.17847e-09
2.20813e-07
-3.42967e-09
2.22293e-07
-4.41405e-09
2.2404e-07
-5.1734e-09
2.25984e-07
-5.74274e-09
2.28065e-07
-6.14944e-09
2.30233e-07
-6.41331e-09
2.32444e-07
-6.54845e-09
2.34664e-07
-6.567e-09
2.3686e-07
-6.48327e-09
2.39007e-07
-6.31606e-09
2.41084e-07
-6.08807e-09
2.43076e-07
-5.82306e-09
2.44973e-07
-5.5424e-09
2.46771e-07
-5.2625e-09
2.4847e-07
-4.99342e-09
2.50072e-07
-4.73797e-09
2.51577e-07
-4.49117e-09
2.52989e-07
-4.24148e-09
2.54306e-07
-3.97516e-09
2.55527e-07
-3.68284e-09
2.56647e-07
-3.36427e-09
2.57662e-07
-3.02827e-09
2.58569e-07
-2.68821e-09
2.59368e-07
-2.35604e-09
2.60058e-07
-2.03798e-09
2.60643e-07
-1.73271e-09
2.61119e-07
-1.43073e-09
2.61484e-07
-1.1132e-09
2.61725e-07
-7.51261e-10
2.61828e-07
-3.10213e-10
2.61771e-07
2.38789e-10
2.61522e-07
9.13909e-10
2.61043e-07
1.72385e-09
2.60297e-07
2.67126e-09
2.59245e-07
3.76101e-09
2.57849e-07
5.00783e-09
2.56067e-07
6.45631e-09
2.53872e-07
8.18764e-09
2.5122e-07
1.08695e-08
1.61194e-08
2.49177e-07
6.29308e-08
-3.99659e-07
9.12787e-08
-3.71814e-07
1.04801e-07
-3.1408e-07
1.0541e-07
-2.51169e-07
9.36549e-08
-1.86473e-07
6.97307e-08
-1.21198e-07
3.34764e-08
-5.59972e-08
-1.56082e-08
8.74529e-09
-7.83814e-08
7.2857e-08
-1.55866e-07
1.36285e-07
-2.49243e-07
1.99107e-07
-3.59943e-07
2.61558e-07
-4.89858e-07
3.24022e-07
-6.41397e-07
3.87133e-07
-8.17052e-07
4.51861e-07
-1.01855e-06
5.19326e-07
-1.24591e-06
5.90219e-07
-1.49662e-06
6.64128e-07
-1.76525e-06
7.39065e-07
-2.04367e-06
8.11484e-07
-2.3219e-06
8.76842e-07
-2.58955e-06
9.30545e-07
-2.83748e-06
9.68935e-07
-3.05909e-06
9.89964e-07
-3.251e-06
9.9336e-07
-3.41307e-06
9.80374e-07
-3.5478e-06
9.53314e-07
-3.65945e-06
9.15016e-07
-3.75305e-06
8.68391e-07
-3.83357e-06
8.16114e-07
-3.90527e-06
7.60438e-07
-3.97141e-06
7.03137e-07
-4.03419e-06
6.45521e-07
-4.09481e-06
5.88497e-07
-4.15366e-06
5.3265e-07
-4.2106e-06
4.78321e-07
-4.26508e-06
4.25672e-07
-4.31637e-06
3.74739e-07
-4.36365e-06
3.25475e-07
-4.4061e-06
2.77779e-07
-4.44295e-06
2.3152e-07
-4.4735e-06
1.86552e-07
-4.49714e-06
1.42723e-07
-4.51334e-06
9.98899e-08
-4.52162e-06
5.79161e-08
-4.52161e-06
1.66774e-08
-4.51299e-06
-2.39588e-08
-4.49562e-06
-6.41154e-08
-4.46941e-06
-1.03863e-07
-4.43435e-06
-1.43216e-07
-4.39039e-06
-1.82159e-07
-4.33753e-06
-2.20674e-07
-4.27578e-06
-2.58736e-07
-4.20521e-06
-2.96311e-07
-4.12587e-06
-3.3336e-07
-4.03786e-06
-3.69834e-07
-3.94131e-06
-4.05675e-07
-3.83636e-06
-4.40821e-07
-3.72317e-06
-4.75201e-07
-3.60194e-06
-5.08739e-07
-3.47287e-06
-5.41355e-07
-3.33619e-06
-5.7296e-07
-3.19217e-06
-6.03464e-07
-3.04108e-06
-6.3277e-07
-2.88324e-06
-6.60774e-07
-2.71898e-06
-6.8737e-07
-2.54866e-06
-7.12442e-07
-2.37267e-06
-7.3587e-07
-2.19145e-06
-7.57529e-07
-2.00545e-06
-7.77283e-07
-1.81516e-06
-7.94994e-07
-1.62112e-06
-8.10515e-07
-1.42388e-06
-8.23695e-07
-1.22405e-06
-8.34378e-07
-1.02227e-06
-8.42405e-07
-8.19224e-07
-8.47614e-07
-6.15601e-07
-8.49847e-07
-4.12117e-07
-8.48954e-07
-2.09511e-07
-8.44813e-07
-8.58593e-09
-8.37326e-07
1.89812e-07
-8.26378e-07
3.84819e-07
-8.11791e-07
5.75555e-07
-7.93522e-07
7.61115e-07
-7.7154e-07
9.40589e-07
-7.45843e-07
1.11307e-06
-7.16458e-07
1.27769e-06
-6.83446e-07
1.43357e-06
-6.469e-07
1.57991e-06
-6.06939e-07
1.71593e-06
-5.63708e-07
1.84089e-06
-5.1737e-07
1.95414e-06
-4.68097e-07
2.05506e-06
-4.16068e-07
2.14312e-06
-3.61456e-07
2.21788e-06
-3.04426e-07
2.27901e-06
-2.45125e-07
2.32625e-06
-1.83672e-07
2.35962e-06
-1.2008e-07
2.37974e-06
-5.40422e-08
2.38731e-06
1.48185e-08
2.38347e-06
8.67646e-08
2.36904e-06
1.61704e-07
2.3445e-06
2.39004e-07
2.30959e-06
3.17251e-07
2.26295e-06
3.93906e-07
2.20197e-06
4.65117e-07
2.12334e-06
5.26005e-07
2.02473e-06
5.71767e-07
1.90689e-06
5.99049e-07
1.77199e-06
6.05007e-07
1.62419e-06
5.88415e-07
1.47074e-06
5.52307e-07
1.32033e-06
5.0427e-07
1.18042e-06
4.53441e-07
1.05517e-06
4.06273e-07
9.45241e-07
3.6499e-07
8.49209e-07
3.28888e-07
7.65036e-07
2.96292e-07
6.90916e-07
2.65861e-07
6.25536e-07
2.36985e-07
5.67997e-07
2.09621e-07
5.17631e-07
1.83973e-07
4.73855e-07
1.60269e-07
4.36089e-07
1.38652e-07
4.03742e-07
1.19155e-07
3.76229e-07
1.01714e-07
3.52988e-07
8.62055e-08
3.33504e-07
7.2477e-08
3.17309e-07
6.03647e-08
3.03985e-07
4.97088e-08
2.93164e-07
4.03599e-08
2.84517e-07
3.2183e-08
2.77754e-07
2.5059e-08
2.72618e-07
1.88838e-08
2.68879e-07
1.35671e-08
2.66335e-07
9.02916e-09