/*--------------------------------*- C++ -*----------------------------------*\
  =========                 |
  \\      /  F ield         | OpenFOAM: The Open Source CFD Toolbox
   \\    /   O peration     | Website:  https://openfoam.org
    \\  /    A nd           | Version:  9
     \\/     M anipulation  |
\*---------------------------------------------------------------------------*/
FoamFile
{
    format      ascii;
    class       volVectorField;
    location    "0.05";
    object      U;
}
// * * * * * * * * * * * * * * * * * * * * * * * * * * * * * * * * * * * * * //

dimensions      [0 1 -1 0 0 0 0];

internalField   nonuniform List<vector> 
12225
(
(0.936452 -0.298654 0)
(0.898225 -0.0786955 0)
(0.794355 0.00100611 0)
(0.68715 0.0130006 0)
(0.610192 0.0108191 0)
(0.553823 0.00822098 0)
(0.505951 0.0070975 0)
(0.461568 0.00689141 0)
(0.418619 0.00702392 0)
(0.376018 0.00720966 0)
(0.33352 0.00730803 0)
(0.2916 0.00718617 0)
(0.251541 0.00663348 0)
(0.215306 0.00527711 0)
(0.189241 0.00220668 0)
(0.174782 -0.00561875 0)
(0.268464 -0.0348824 0)
(0.143065 0.129337 0)
(1.02378 0.0826544 0)
(1.00097 0.069035 0)
(0.962352 0.037168 0)
(0.911258 0.0278597 0)
(0.859775 0.024052 0)
(0.811108 0.0211349 0)
(0.764132 0.0196492 0)
(0.717936 0.0194768 0)
(0.671482 0.0200818 0)
(0.623711 0.0210416 0)
(0.574039 0.022041 0)
(0.522477 0.022732 0)
(0.469804 0.0226075 0)
(0.417443 0.0207079 0)
(0.369965 0.0150724 0)
(0.329302 -0.00485262 0)
(0.323224 -0.0322403 0)
(0.190464 0.144822 0)
(0.999178 0.0203931 0)
(0.997964 0.0354885 0)
(0.991922 0.0360731 0)
(0.968232 0.0356114 0)
(0.935302 0.0338551 0)
(0.898338 0.031896 0)
(0.858808 0.0311778 0)
(0.817559 0.0318438 0)
(0.774592 0.0334906 0)
(0.72935 0.0357251 0)
(0.681331 0.0381831 0)
(0.630294 0.0403974 0)
(0.576416 0.0416643 0)
(0.520129 0.0406776 0)
(0.463425 0.0346789 0)
(0.405654 0.014383 0)
(0.345826 -0.00286827 0)
(0.21473 0.194335 0)
(0.998151 0.00586719 0)
(0.999937 0.0295855 0)
(1.00182 0.0383957 0)
(0.989429 0.0412869 0)
(0.967529 0.0418434 0)
(0.939686 0.0417042 0)
(0.907276 0.0423872 0)
(0.871527 0.0443296 0)
(0.832935 0.047354 0)
(0.791334 0.0511694 0)
(0.746378 0.0554299 0)
(0.697731 0.0596337 0)
(0.645157 0.063005 0)
(0.588332 0.0641139 0)
(0.527387 0.0599952 0)
(0.459914 0.043899 0)
(0.376855 0.0407231 0)
(0.250368 0.24268 0)
(0.999186 0.00635177 0)
(1.00136 0.0296257 0)
(1.00492 0.0401642 0)
(0.998125 0.0452462 0)
(0.98315 0.0481732 0)
(0.961986 0.0501708 0)
(0.93553 0.0526479 0)
(0.904888 0.0562257 0)
(0.870683 0.0609272 0)
(0.832956 0.0665914 0)
(0.791477 0.0729471 0)
(0.745873 0.0795447 0)
(0.695652 0.0856643 0)
(0.640005 0.089968 0)
(0.577931 0.0897841 0)
(0.506272 0.0812657 0)
(0.415574 0.0916291 0)
(0.298376 0.279769 0)
(0.999535 0.00771791 0)
(1.00156 0.0290834 0)
(1.00523 0.0407691 0)
(1.00148 0.0479602 0)
(0.99093 0.0531632 0)
(0.974581 0.0573659 0)
(0.952911 0.0618455 0)
(0.926751 0.0673012 0)
(0.896661 0.0739059 0)
(0.862752 0.0816285 0)
(0.824858 0.0903051 0)
(0.782597 0.0996004 0)
(0.735345 0.108943 0)
(0.682066 0.117234 0)
(0.62123 0.122386 0)
(0.549629 0.123072 0)
(0.459939 0.144864 0)
(0.355123 0.310721 0)
(0.999563 0.00800251 0)
(1.00126 0.0279558 0)
(1.00449 0.0408159 0)
(1.00235 0.0499101 0)
(0.99463 0.0571917 0)
(0.981746 0.0635451 0)
(0.963871 0.0701005 0)
(0.941548 0.0775682 0)
(0.915205 0.0862269 0)
(0.884948 0.0961613 0)
(0.850633 0.107327 0)
(0.811888 0.119536 0)
(0.768063 0.132411 0)
(0.718092 0.145159 0)
(0.660354 0.156359 0)
(0.592063 0.16646 0)
(0.508577 0.197376 0)
(0.417385 0.339736 0)
(0.99959 0.00795471 0)
(1.00085 0.0269051 0)
(1.00341 0.0407161 0)
(1.00203 0.051412 0)
(0.99613 0.060553 0)
(0.985758 0.0689393 0)
(0.970887 0.0775523 0)
(0.951826 0.0870793 0)
(0.928858 0.0978707 0)
(0.90205 0.110109 0)
(0.871268 0.123869 0)
(0.836167 0.139113 0)
(0.796149 0.155667 0)
(0.750262 0.173043 0)
(0.697066 0.190429 0)
(0.634457 0.209284 0)
(0.560183 0.247176 0)
(0.482668 0.36809 0)
(0.999659 0.00795022 0)
(1.00048 0.0261238 0)
(1.00229 0.0406299 0)
(1.0012 0.0526588 0)
(0.996476 0.0634498 0)
(0.987955 0.0737185 0)
(0.975489 0.0843108 0)
(0.959211 0.0958762 0)
(0.939285 0.108812 0)
(0.915735 0.12338 0)
(0.888433 0.13976 0)
(0.857086 0.158055 0)
(0.821202 0.178269 0)
(0.780025 0.200179 0)
(0.732444 0.223439 0)
(0.677086 0.249891 0)
(0.613474 0.292867 0)
(0.549139 0.395725 0)
(0.999738 0.00800805 0)
(1.00018 0.0255964 0)
(1.00127 0.0406238 0)
(1.00024 0.0537712 0)
(0.9963 0.0660173 0)
(0.989185 0.0780007 0)
(0.978688 0.0904527 0)
(0.964825 0.10398 0)
(0.947668 0.119009 0)
(0.927213 0.135862 0)
(0.90335 0.154803 0)
(0.875856 0.17605 0)
(0.844375 0.199745 0)
(0.808385 0.22586 0)
(0.767145 0.254351 0)
(0.719928 0.287008 0)
(0.667366 0.333465 0)
(0.615482 0.421998 0)
(0.999807 0.008093 0)
(0.99995 0.025288 0)
(1.00045 0.0407318 0)
(0.999386 0.0548234 0)
(0.99601 0.0683428 0)
(0.990024 0.0818647 0)
(0.981199 0.0960274 0)
(0.969482 0.111395 0)
(0.954892 0.128407 0)
(0.93741 0.147428 0)
(0.91696 0.168784 0)
(0.893402 0.19277 0)
(0.866526 0.219618 0)
(0.836044 0.24942 0)
(0.801562 0.282282 0)
(0.762843 0.319689 0)
(0.721066 0.368289 0)
(0.680753 0.445903 0)
(0.999857 0.00817598 0)
(0.999822 0.0251663 0)
(0.999935 0.040932 0)
(0.998843 0.0557575 0)
(0.995905 0.0702916 0)
(0.990817 0.0850608 0)
(0.983361 0.100636 0)
(0.973458 0.117545 0)
(0.9611 0.136227 0)
(0.946275 0.157069 0)
(0.928947 0.18043 0)
(0.909057 0.206643 0)
(0.886525 0.23598 0)
(0.86125 0.26858 0)
(0.833106 0.304578 0)
(0.802166 0.345085 0)
(0.769779 0.394651 0)
(0.739341 0.464641 0)
(0.999898 0.00826459 0)
(0.999761 0.0251551 0)
(0.999627 0.0411993 0)
(0.998573 0.0566505 0)
(0.996065 0.072063 0)
(0.991824 0.0879236 0)
(0.985655 0.10475 0)
(0.977473 0.123032 0)
(0.967265 0.143202 0)
(0.955036 0.165652 0)
(0.940795 0.190755 0)
(0.92456 0.218854 0)
(0.906365 0.250223 0)
(0.886258 0.285007 0)
(0.864312 0.323299 0)
(0.840799 0.365827 0)
(0.817017 0.415538 0)
(0.795498 0.479458 0)
(0.999934 0.00835791 0)
(0.999776 0.0252217 0)
(0.99955 0.0415379 0)
(0.99867 0.0575741 0)
(0.99672 0.0738183 0)
(0.993466 0.090724 0)
(0.98875 0.108758 0)
(0.982502 0.128372 0)
(0.97472 0.149977 0)
(0.965438 0.173956 0)
(0.954716 0.200669 0)
(0.94265 0.230441 0)
(0.929371 0.263519 0)
(0.915051 0.300009 0)
(0.899901 0.339925 0)
(0.884293 0.383601 0)
(0.869306 0.43265 0)
(0.856683 0.490938 0)
(0.999967 0.00843422 0)
(0.999896 0.0253068 0)
(0.9998 0.0418537 0)
(0.999325 0.058386 0)
(0.998166 0.0753484 0)
(0.996141 0.0931656 0)
(0.99314 0.112258 0)
(0.989124 0.133032 0)
(0.984113 0.155864 0)
(0.978178 0.181105 0)
(0.971431 0.209077 0)
(0.964029 0.240056 0)
(0.956178 0.274229 0)
(0.948124 0.311637 0)
(0.940143 0.35219 0)
(0.932609 0.395892 0)
(0.926304 0.44336 0)
(0.922274 0.496351 0)
(1 0.00844261 0)
(1.00015 0.0252592 0)
(1.00047 0.0419072 0)
(1.00073 0.0587536 0)
(1.00072 0.076214 0)
(1.0003 0.0946805 0)
(0.999399 0.114527 0)
(0.998017 0.136106 0)
(0.996204 0.159743 0)
(0.994062 0.185734 0)
(0.991741 0.214336 0)
(0.989438 0.245752 0)
(0.98739 0.280088 0)
(0.98586 0.317311 0)
(0.985124 0.357241 0)
(0.98549 0.399653 0)
(0.987443 0.444536 0)
(0.99147 0.492364 0)
(1.00004 0.00829098 0)
(1.00057 0.0247882 0)
(1.00163 0.041234 0)
(1.00306 0.058041 0)
(1.00466 0.0755998 0)
(1.00633 0.09426 0)
(1.00804 0.11434 0)
(1.00979 0.136127 0)
(1.01166 0.159878 0)
(1.01376 0.185812 0)
(1.01627 0.214107 0)
(1.01937 0.244875 0)
(1.02329 0.278144 0)
(1.02826 0.313818 0)
(1.03452 0.351667 0)
(1.04225 0.391359 0)
(1.05172 0.432577 0)
(1.06302 0.475147 0)
(1.0001 0.00781999 0)
(1.00119 0.0234014 0)
(1.00334 0.0390405 0)
(1.00638 0.0551702 0)
(1.01012 0.0721484 0)
(1.01443 0.0902677 0)
(1.01928 0.109776 0)
(1.02467 0.130881 0)
(1.03067 0.153757 0)
(1.03739 0.178534 0)
(1.04497 0.205299 0)
(1.05356 0.234085 0)
(1.06335 0.264851 0)
(1.0745 0.297463 0)
(1.08715 0.331687 0)
(1.10143 0.367191 0)
(1.1174 0.40359 0)
(1.13497 0.440497 0)
(1.00018 0.00678003 0)
(1.00201 0.0203333 0)
(1.00558 0.0340827 0)
(1.01069 0.048458 0)
(1.01704 0.063762 0)
(1.02445 0.0802104 0)
(1.03285 0.0979644 0)
(1.04222 0.117141 0)
(1.05259 0.137819 0)
(1.06402 0.160042 0)
(1.0766 0.183816 0)
(1.09043 0.20911 0)
(1.10561 0.235841 0)
(1.12223 0.263872 0)
(1.14036 0.293 0)
(1.16002 0.322961 0)
(1.18119 0.353441 0)
(1.2037 0.384099 0)
(1.00024 0.00530638 0)
(1.00276 0.0159193 0)
(1.00767 0.0268918 0)
(1.01465 0.0386786 0)
(1.02323 0.0515194 0)
(1.03317 0.0655427 0)
(1.04435 0.0808188 0)
(1.05671 0.0973733 0)
(1.07025 0.1152 0)
(1.085 0.134273 0)
(1.10101 0.154544 0)
(1.11834 0.175946 0)
(1.13706 0.198382 0)
(1.15719 0.221728 0)
(1.17877 0.245824 0)
(1.20177 0.270475 0)
(1.22613 0.29546 0)
(1.25172 0.320541 0)
(1.00028 0.00381278 0)
(1.0033 0.0114537 0)
(1.00926 0.0196998 0)
(1.0176 0.0290358 0)
(1.02772 0.0396041 0)
(1.03931 0.0514332 0)
(1.0522 0.0645032 0)
(1.06633 0.0787539 0)
(1.08167 0.0941082 0)
(1.09825 0.110487 0)
(1.11611 0.12781 0)
(1.13528 0.14599 0)
(1.15581 0.164929 0)
(1.17771 0.184515 0)
(1.20098 0.204619 0)
(1.22559 0.225094 0)
(1.25146 0.245775 0)
(1.27849 0.266498 0)
(1.00028 0.00232549 0)
(1.00367 0.00688798 0)
(1.01052 0.012412 0)
(1.01996 0.0194208 0)
(1.03118 0.0278919 0)
(1.04384 0.0377344 0)
(1.05777 0.0488297 0)
(1.0729 0.0610242 0)
(1.08921 0.0741735 0)
(1.10675 0.0881574 0)
(1.12554 0.102872 0)
(1.14564 0.118223 0)
(1.16707 0.134115 0)
(1.18982 0.150452 0)
(1.21389 0.167129 0)
(1.23923 0.184034 0)
(1.26576 0.201045 0)
(1.29339 0.218047 0)
(1.00021 0.000954326 0)
(1.0038 0.00240662 0)
(1.01143 0.00534693 0)
(1.02172 0.0102867 0)
(1.03364 0.0169395 0)
(1.04686 0.0250946 0)
(1.06124 0.0345226 0)
(1.07671 0.0449628 0)
(1.0933 0.0562066 0)
(1.11108 0.0681044 0)
(1.13012 0.0805418 0)
(1.15046 0.0934241 0)
(1.17211 0.106668 0)
(1.19509 0.120193 0)
(1.21935 0.133922 0)
(1.24485 0.147768 0)
(1.27151 0.161647 0)
(1.29924 0.175475 0)
(1.00005 -0.000224943 0)
(1.0036 -0.00197002 0)
(1.01195 -0.00134122 0)
(1.02287 0.00190017 0)
(1.03509 0.00707767 0)
(1.04838 0.0138965 0)
(1.0626 0.0219995 0)
(1.07776 0.0309979 0)
(1.09397 0.040627 0)
(1.11136 0.0507229 0)
(1.13004 0.0611743 0)
(1.15006 0.0718979 0)
(1.17144 0.0828275 0)
(1.19417 0.0939056 0)
(1.21821 0.105077 0)
(1.2435 0.116284 0)
(1.26995 0.127466 0)
(1.29747 0.138569 0)
(0.999755 -0.000917842 0)
(1.00299 -0.00617793 0)
(1.01215 -0.00756013 0)
(1.0234 -0.00557504 0)
(1.03538 -0.00147165 0)
(1.04805 0.0044021 0)
(1.06137 0.0115258 0)
(1.07545 0.0193664 0)
(1.09057 0.0276233 0)
(1.10695 0.0361411 0)
(1.12473 0.0448309 0)
(1.14397 0.0536339 0)
(1.16468 0.0625091 0)
(1.18684 0.0714242 0)
(1.21037 0.0803481 0)
(1.23521 0.0892467 0)
(1.26124 0.0980844 0)
(1.28837 0.106825 0)
(0.998942 -5.87437e-05 0)
(1.00162 -0.00950139 0)
(1.01193 -0.0129297 0)
(1.02304 -0.0118896 0)
(1.03382 -0.00843641 0)
(1.04481 -0.00310198 0)
(1.05615 0.00333815 0)
(1.0682 0.0102265 0)
(1.08144 0.0172639 0)
(1.09619 0.0243343 0)
(1.1126 0.0313992 0)
(1.13069 0.0384389 0)
(1.15045 0.0454443 0)
(1.17181 0.0524094 0)
(1.19467 0.0593258 0)
(1.21893 0.0661791 0)
(1.24444 0.0729534 0)
(1.27111 0.0796278 0)
(0.996739 0.00218532 0)
(0.998828 -0.0112571 0)
(1.01063 -0.01671 0)
(1.02057 -0.0165707 0)
(1.02842 -0.0134076 0)
(1.03596 -0.00825007 0)
(1.0438 -0.00230702 0)
(1.05263 0.00368872 0)
(1.06314 0.00952444 0)
(1.07568 0.0151628 0)
(1.09034 0.0206464 0)
(1.10704 0.0260052 0)
(1.1257 0.0312625 0)
(1.14616 0.0364357 0)
(1.16828 0.0415329 0)
(1.19192 0.0465528 0)
(1.21689 0.0514934 0)
(1.24312 0.0563467 0)
(0.994664 -0.00599933 0)
(0.996008 -0.0169191 0)
(1.00677 -0.0198069 0)
(1.0121 -0.0193858 0)
(1.01366 -0.0160584 0)
(1.01485 -0.0108189 0)
(1.01706 -0.00532999 0)
(1.0213 -0.000302679 0)
(1.02825 0.00421867 0)
(1.03815 0.00836048 0)
(1.05083 0.0122596 0)
(1.06603 0.0159904 0)
(1.0835 0.0196 0)
(1.10302 0.0231176 0)
(1.12438 0.026559 0)
(1.14736 0.029928 0)
(1.17177 0.0332273 0)
(1.19754 0.0364565 0)
(1.01328 -0.0694165 0)
(1.00743 -0.0624304 0)
(0.998711 -0.0332295 0)
(0.985171 -0.0218432 0)
(0.971765 -0.0163773 0)
(0.961546 -0.0110825 0)
(0.955335 -0.00628465 0)
(0.953604 -0.00241387 0)
(0.956351 0.000635414 0)
(0.963356 0.0033051 0)
(0.97391 0.0057332 0)
(0.987426 0.00800163 0)
(1.0035 0.010162 0)
(1.02182 0.0122409 0)
(1.04212 0.0142532 0)
(1.06416 0.0162044 0)
(1.0877 0.0180932 0)
(1.11269 0.0199223 0)
(0.968623 0.248246 0)
(0.973257 0.0801071 0)
(0.917131 0.00869032 0)
(0.848376 -0.00617726 0)
(0.800384 -0.00622964 0)
(0.772287 -0.00356823 0)
(0.756642 -0.00127775 0)
(0.749373 0.000186556 0)
(0.748342 0.000999481 0)
(0.75151 0.00172919 0)
(0.758143 0.00244024 0)
(0.767813 0.00314091 0)
(0.780169 0.00383408 0)
(0.794895 0.00451546 0)
(0.811705 0.00518073 0)
(0.830353 0.00582768 0)
(0.850564 0.0064453 0)
(0.87223 0.00705212 0)
(0.0357023 -0.0477521 -8.82238e-21)
(0.128573 -0.130479 7.49421e-21)
(0.247357 -0.170423 0)
(0.371046 -0.178152 0)
(0.484393 -0.167268 0)
(0.580746 -0.146776 -6.42828e-21)
(0.657795 -0.121715 0)
(0.714839 -0.0947579 0)
(0.751652 -0.0671197 0)
(0.769732 -0.0389646 0)
(0.767154 -0.0108921 6.88544e-21)
(0.744679 0.0152163 0)
(0.706722 0.0369383 0)
(0.657954 0.0523971 0)
(0.602923 0.0607823 0)
(0.545627 0.0624729 7.17281e-21)
(0.488694 0.0589734 0)
(0.432756 0.0524992 0)
(0.376343 0.0454729 0)
(0.316213 0.0403059 0)
(0.248065 0.0390698 0)
(0.167055 0.0435704 0)
(0.0680823 0.0552079 0)
(-0.0541965 0.0740604 9.95191e-21)
(-0.204965 0.100694 -9.5145e-21)
(-0.38715 0.135744 9.03972e-21)
(-0.600686 0.175544 8.6544e-21)
(-0.842184 0.214647 0)
(-1.10588 0.248544 0)
(-1.38472 0.27434 -8.35245e-21)
(-1.67123 0.290655 -8.53852e-21)
(-1.95827 0.297353 0)
(-2.23942 0.295209 0)
(-2.50937 0.285563 -9.61679e-21)
(-2.76395 0.270017 0)
(-3.00017 0.250183 0)
(-3.21607 0.227524 1.09034e-20)
(-3.41057 0.203256 0)
(-3.58329 0.17833 1.16357e-20)
(-3.73437 0.153437 2.38754e-20)
(-3.86428 0.12905 0)
(-3.97369 0.105481 0)
(-4.06332 0.082935 0)
(-4.13397 0.0615717 0)
(-4.18647 0.0415966 0)
(-4.22169 0.0233866 2.54251e-20)
(-4.2402 0.00751268 2.53405e-20)
(-4.24233 -0.00558792 2.51252e-20)
(-4.23118 -0.0161661 0)
(-4.20934 -0.0252102 -2.4313e-20)
(-4.17692 -0.0334893 0)
(-4.13465 -0.041304 2.3054e-20)
(-4.08284 -0.0488178 2.22577e-20)
(-4.02175 -0.0561068 0)
(-3.95156 -0.0632116 0)
(-3.87246 -0.0701531 0)
(-3.78461 -0.0769422 1.80027e-20)
(-3.68816 -0.0835842 0)
(-3.5833 -0.0900805 0)
(-3.4702 -0.096431 0)
(-3.34909 -0.102634 0)
(-3.22016 -0.108686 0)
(-3.08366 -0.114584 0)
(-2.93986 -0.120324 0)
(-2.78903 -0.125901 0)
(-2.63147 -0.131311 -2.83656e-21)
(-2.46752 -0.136549 0)
(-2.29754 -0.141609 0)
(-2.12191 -0.146487 -3.59733e-21)
(-1.94105 -0.151175 -5.85119e-21)
(-1.7554 -0.15567 0)
(-1.56545 -0.159964 1.04824e-20)
(-1.3717 -0.164052 -1.28444e-20)
(-1.17472 -0.167922 0)
(-0.975079 -0.171558 1.7619e-20)
(-0.773437 -0.174923 0)
(-0.570561 -0.177905 0)
(-0.367459 -0.180175 -2.47608e-20)
(-0.165319 -0.1808 0)
(0.0347321 -0.177991 2.76876e-20)
(0.233367 -0.171686 0)
(0.429922 -0.164017 -2.41111e-20)
(0.622948 -0.155989 -2.21237e-20)
(0.811256 -0.147819 -2.0146e-20)
(0.993901 -0.13952 -3.63844e-20)
(1.17 -0.13108 3.25512e-20)
(1.33867 -0.122492 0)
(1.49903 -0.113749 0)
(1.65022 -0.104852 0)
(1.79141 -0.0958047 1.8448e-20)
(1.92178 -0.0866142 1.53399e-20)
(2.04053 -0.0772868 -1.24382e-20)
(2.14688 -0.06783 0)
(2.24008 -0.0582133 7.32189e-21)
(2.3193 -0.0483222 5.139e-21)
(2.38329 -0.0381922 3.22553e-21)
(2.43131 -0.0272265 0)
(2.46247 -0.0121253 0)
(2.46423 0.00755846 0)
(2.43398 0.0298521 -1.42642e-21)
(2.372 0.0524643 0)
(2.27818 0.0736198 0)
(2.15393 0.0915553 1.85614e-21)
(2.00313 0.104273 0)
(1.8324 0.109758 0)
(1.65102 0.106675 4.64203e-22)
(1.47186 0.0936731 0)
(1.31033 0.0722502 0)
(1.16353 0.0784324 1.59404e-21)
(1.04706 0.0885969 2.16261e-21)
(0.949971 0.0660657 0)
(0.871803 0.0423387 -3.36161e-21)
(0.806863 0.0235402 0)
(0.746957 0.017055 4.15049e-21)
(0.686688 0.0179207 0)
(0.624638 0.0200341 4.5179e-21)
(0.562789 0.021275 4.57483e-21)
(0.503725 0.0214141 0)
(0.449218 0.0206632 0)
(0.400145 0.0193214 0)
(0.356638 0.0176716 0)
(0.318365 0.0159245 0)
(0.284817 0.0141976 0)
(0.255488 0.0125403 0)
(0.22994 0.0109718 3.46487e-21)
(0.207806 0.00950267 -3.30943e-21)
(0.188768 0.00814062 0)
(0.172534 0.00689017 0)
(0.158837 0.00575224 0)
(0.147426 0.00472494 0)
(0.138067 0.00380452 -5.60214e-21)
(0.13054 0.00298622 0)
(0.12464 0.00226478 5.41785e-21)
(0.120175 0.00163529 -5.36064e-21)
(0.116962 0.00109335 0)
(0.114829 0.000635643 0)
(0.113607 0.00026477 0)
(0.113148 -1.57815e-05 5.28615e-21)
(0.113309 -0.000255378 5.29106e-21)
(0.113987 -0.000458043 0)
(0.115082 -0.000617931 5.3132e-21)
(0.116516 -0.00074253 5.32745e-21)
(0.118219 -0.000838705 -5.3421e-21)
(0.120134 -0.000911489 0)
(0.122211 -0.000964051 0)
(0.124405 -0.000997539 -5.37981e-21)
(0.126673 -0.00101177 0)
(0.128972 -0.00100693 0)
(0.131263 -0.000985187 0)
(0.13351 -0.000950977 0)
(0.13569 -0.000909781 5.39663e-21)
(0.137788 -0.000866627 5.39179e-21)
(0.139801 -0.000825155 0)
(0.141732 -0.000787492 5.37442e-21)
(0.143587 -0.000754527 0)
(0.145375 -0.000725884 0)
(0.147103 -0.000699394 5.33217e-21)
(0.14877 -0.000671041 0)
(0.150368 -0.00063658 5.29591e-21)
(0.15188 -0.000594156 0)
(0.153291 -0.000545482 0)
(0.154588 -0.000494573 5.23305e-21)
(0.155769 -0.000445433 0)
(0.156838 -0.000400429 5.18697e-21)
(0.157804 -0.000359998 0)
(0.158676 -0.00032326 0)
(0.159458 -0.000288378 0)
(0.160153 -0.000251601 -5.09012e-21)
(0.160747 -0.000205327 0)
(0.161215 -0.000137944 5.04197e-21)
(0.161493 -7.29519e-05 0)
(0.161524 9.05352e-06 0)
(0.16126 0.000127628 0)
(0.160649 0.000268596 0)
(0.159636 0.000424783 0)
(0.158133 0.000603685 0)
(0.156134 0.000804628 0)
(0.153102 0.0010895 -9.75608e-21)
(0.150809 0.00142844 0)
(0.13905 0.00361087 0)
(0.0841021 -0.294086 2.30366e-20)
(0.18972 -0.3903 -1.73392e-20)
(0.287465 -0.384764 0)
(0.369159 -0.345799 9.78197e-21)
(0.431868 -0.293037 0)
(0.477273 -0.234595 4.45854e-21)
(0.507162 -0.17465 -9.7871e-21)
(0.522603 -0.11555 -1.00001e-20)
(0.524357 -0.0586441 0)
(0.512867 -0.00466804 -1.04272e-20)
(0.491233 0.0450539 -5.12534e-21)
(0.459876 0.0884921 0)
(0.417105 0.123349 0)
(0.361884 0.148175 0)
(0.293505 0.163391 0)
(0.211318 0.171709 -5.29474e-21)
(0.11416 0.177877 0)
(-1.47681e-06 0.187415 1.02652e-20)
(-0.134149 0.205277 0)
(-0.291806 0.235184 0)
(-0.476339 0.279149 -8.96706e-21)
(-0.690159 0.337068 0)
(-0.933492 0.406157 8.36146e-21)
(-1.20281 0.480941 -4.35265e-21)
(-1.49119 0.554742 4.23008e-21)
(-1.79022 0.620987 -4.1543e-21)
(-2.09106 0.673751 -4.1412e-21)
(-2.38529 0.708961 0)
(-2.66561 0.724944 0)
(-2.92628 0.722178 4.59405e-21)
(-3.16329 0.702729 -5.96017e-21)
(-3.37439 0.669639 0)
(-3.55891 0.626347 0)
(-3.71747 0.576233 6.22691e-21)
(-3.85165 0.522306 0)
(-3.9636 0.467033 0)
(-4.05576 0.412284 -7.66561e-21)
(-4.13057 0.359358 0)
(-4.19031 0.309062 9.31862e-21)
(-4.23706 0.261806 -1.76259e-20)
(-4.27256 0.217708 0)
(-4.2983 0.176686 0)
(-4.31553 0.138536 -3.91249e-20)
(-4.32527 0.102991 -3.94905e-20)
(-4.3284 0.0697976 -3.96513e-20)
(-4.32563 0.0388518 2.03357e-20)
(-4.31764 0.0102974 -1.9162e-20)
(-4.305 -0.0156413 -5.76985e-20)
(-4.28582 -0.0391236 3.8066e-20)
(-4.25804 -0.0607904 1.80917e-20)
(-4.22164 -0.0812045 0)
(-4.17636 -0.100658 -1.69285e-20)
(-4.12221 -0.119336 1.73977e-20)
(-4.05924 -0.137338 0)
(-3.98755 -0.154718 0)
(-3.90726 -0.1715 0)
(-3.81849 -0.187693 -1.26965e-20)
(-3.72139 -0.203294 0)
(-3.61611 -0.218291 2.2761e-20)
(-3.50284 -0.232671 0)
(-3.38175 -0.246415 1.82647e-20)
(-3.25307 -0.2595 0)
(-3.11701 -0.271904 -1.34589e-20)
(-2.97384 -0.283602 0)
(-2.82383 -0.294567 8.43427e-21)
(-2.66728 -0.30477 -4.06433e-21)
(-2.50451 -0.314184 0)
(-2.33589 -0.322776 -7.09608e-22)
(-2.1618 -0.330517 2.18949e-21)
(-1.98266 -0.337373 3.50193e-21)
(-1.79892 -0.343312 0)
(-1.61106 -0.348299 3.28636e-21)
(-1.41961 -0.352301 7.26493e-21)
(-1.22513 -0.35528 0)
(-1.02821 -0.357191 -9.53939e-21)
(-0.829499 -0.357978 1.81331e-20)
(-0.629646 -0.357556 0)
(-0.429258 -0.355774 1.24185e-20)
(-0.228809 -0.35232 0)
(-0.0291731 -0.346764 -3.79018e-20)
(0.168443 -0.338977 0)
(0.363079 -0.329407 3.62643e-20)
(0.554034 -0.318454 1.24213e-20)
(0.740554 -0.306291 -9.22129e-21)
(0.921789 -0.292979 -1.721e-20)
(1.09685 -0.278555 1.58444e-20)
(1.26488 -0.263054 0)
(1.42499 -0.246522 0)
(1.57635 -0.229013 0)
(1.71814 -0.210586 -3.49001e-20)
(1.84957 -0.191308 -1.07333e-20)
(1.9699 -0.171238 8.87955e-21)
(2.0784 -0.150425 0)
(2.17439 -0.128875 3.55205e-21)
(2.25725 -0.106517 -3.8689e-21)
(2.32656 -0.0832626 -2.46618e-21)
(2.38186 -0.0583834 0)
(2.42305 -0.029775 0)
(2.45733 0.00282672 0)
(2.4832 0.0385595 1.13486e-21)
(2.49651 0.0759717 0)
(2.49277 0.113893 -3.92345e-21)
(2.46745 0.150721 -5.06833e-21)
(2.41628 0.183834 2.95515e-21)
(2.33606 0.209742 0)
(2.22588 0.224662 5.35511e-22)
(2.08797 0.225554 0)
(1.92676 0.21235 -1.73896e-21)
(1.75119 0.187879 2.12191e-21)
(1.56568 0.154183 2.89016e-21)
(1.39197 0.123805 0)
(1.23389 0.102771 9.06829e-21)
(1.09709 0.0915454 -6.83939e-21)
(0.981227 0.0868426 -3.4791e-21)
(0.882219 0.0846517 0)
(0.79507 0.0822545 -3.77116e-21)
(0.716098 0.0782941 -1.16044e-20)
(0.643631 0.0725162 0)
(0.577264 0.0654627 -7.64497e-21)
(0.517062 0.0579568 -7.45804e-21)
(0.463116 0.0506833 -7.2167e-21)
(0.415357 0.0440215 0)
(0.373521 0.0380792 0)
(0.337196 0.0328151 0)
(0.305893 0.0281442 3.06536e-21)
(0.279109 0.0239889 2.86203e-21)
(0.256355 0.0202905 0)
(0.237178 0.0170039 5.33649e-21)
(0.221163 0.0140916 5.15701e-21)
(0.207934 0.0115199 0)
(0.197157 0.00925803 4.86397e-21)
(0.188528 0.0072781 9.58251e-21)
(0.181777 0.00555498 -4.70609e-21)
(0.176662 0.00406676 -4.67424e-21)
(0.172962 0.00279441 0)
(0.170478 0.00172088 0)
(0.169032 0.000830693 0)
(0.168457 0.000110437 -4.59747e-21)
(0.16861 -0.000472927 4.59395e-21)
(0.16936 -0.000944629 9.21207e-21)
(0.170589 -0.00131693 -4.62378e-21)
(0.172197 -0.00160584 4.62258e-21)
(0.174104 -0.00182598 4.65185e-21)
(0.176241 -0.00198903 0)
(0.178549 -0.00210333 0)
(0.180979 -0.00217395 -4.67267e-21)
(0.183486 -0.00220374 0)
(0.186028 -0.00219549 0)
(0.188569 -0.00215399 9.40933e-21)
(0.191079 -0.00208676 0)
(0.193531 -0.00200299 4.70065e-21)
(0.195908 -0.00191174 -4.71539e-21)
(0.198201 -0.00182036 0)
(0.200407 -0.00173383 4.69038e-21)
(0.202527 -0.00165462 0)
(0.204567 -0.00158254 0)
(0.206529 -0.00151445 -4.67499e-21)
(0.208415 -0.00144463 9.3112e-21)
(0.210222 -0.00136706 -4.64767e-21)
(0.211942 -0.00127861 0)
(0.213565 -0.00118075 0)
(0.215084 -0.00107856 4.58881e-21)
(0.216492 -0.000978014 0)
(0.217791 -0.000883475 4.55372e-21)
(0.218982 -0.000796545 0)
(0.220071 -0.000716218 0)
(0.22106 -0.000639068 0)
(0.221947 -0.000558513 4.48476e-21)
(0.222722 -0.000464142 0)
(0.223361 -0.00034307 -4.44597e-21)
(0.223837 -0.000194181 0)
(0.224114 -9.57841e-06 0)
(0.224135 0.000217917 8.77687e-21)
(0.223845 0.000483266 -8.74232e-21)
(0.223195 0.000784315 0)
(0.222114 0.0011276 0)
(0.220604 0.00152967 0)
(0.218249 0.00203109 2.58858e-20)
(0.216427 0.00294672 0)
(0.209021 0.00562801 -1.71902e-20)
(0.0651502 -0.560046 6.01324e-22)
(0.146591 -0.600721 2.13576e-20)
(0.204767 -0.532555 0)
(0.24653 -0.448783 -1.74016e-20)
(0.272819 -0.361389 0)
(0.285108 -0.273752 0)
(0.284658 -0.187883 -2.32756e-22)
(0.272117 -0.105181 8.69834e-21)
(0.247776 -0.0266107 9.04954e-21)
(0.211723 0.0472833 9.12342e-21)
(0.164001 0.116443 0)
(0.104328 0.180545 0)
(0.0317927 0.238768 -9.24379e-21)
(-0.0555199 0.290439 -1.78937e-20)
(-0.160326 0.336692 1.6798e-20)
(-0.285691 0.381028 0)
(-0.434802 0.428509 1.46602e-20)
(-0.610237 0.484357 -6.95945e-21)
(-0.813284 0.552259 0)
(-1.04319 0.633113 1.25077e-20)
(-1.2966 0.724535 5.99677e-21)
(-1.56745 0.821063 -1.21176e-20)
(-1.84742 0.91517 -5.7155e-21)
(-2.12685 0.998848 0)
(-2.39609 1.06501 1.33967e-20)
(-2.64686 1.10846 1.42912e-20)
(-2.87333 1.12656 0)
(-3.07251 1.11929 1.66131e-20)
(-3.24402 1.08883 0)
(-3.3896 1.03897 1.94074e-20)
(-3.51235 0.974297 8.72182e-21)
(-3.61602 0.899541 0)
(-3.70444 0.819082 0)
(-3.78101 0.736609 0)
(-3.8485 0.654978 0)
(-3.90894 0.57621 0)
(-3.96366 0.50158 0)
(-4.01341 0.431754 2.97561e-20)
(-4.05848 0.366943 -4.50968e-20)
(-4.09885 0.307046 0)
(-4.1343 0.251769 0)
(-4.16451 0.20072 0)
(-4.18911 0.153472 -1.04865e-21)
(-4.20772 0.109599 3.17213e-20)
(-4.21993 0.0686839 6.45074e-20)
(-4.22525 0.0302982 -6.42895e-20)
(-4.22314 -0.00606242 -3.23179e-20)
(-4.21309 -0.040995 3.08161e-20)
(-4.19472 -0.0749435 1.00267e-21)
(-4.1679 -0.107927 3.03909e-20)
(-4.13263 -0.139858 0)
(-4.08888 -0.170755 2.85031e-20)
(-4.03665 -0.200649 1.10615e-21)
(-3.97597 -0.22957 0)
(-3.9069 -0.257534 0)
(-3.82952 -0.284543 -2.34356e-20)
(-3.74394 -0.310587 0)
(-3.65028 -0.335647 0)
(-3.54867 -0.359695 2.00609e-20)
(-3.43927 -0.382699 3.40128e-20)
(-3.32227 -0.404622 -1.38101e-20)
(-3.19785 -0.425423 0)
(-3.06624 -0.445059 1.00784e-20)
(-2.92767 -0.463482 0)
(-2.78242 -0.480644 9.48218e-21)
(-2.63078 -0.496493 4.32819e-21)
(-2.47306 -0.510976 -8.23018e-21)
(-2.3096 -0.524035 -4.0048e-21)
(-2.14079 -0.535612 0)
(-1.96703 -0.545647 -2.69429e-21)
(-1.78875 -0.554076 0)
(-1.60644 -0.560836 -1.61297e-20)
(-1.42061 -0.565861 -1.2671e-20)
(-1.2318 -0.569083 -1.56764e-20)
(-1.04061 -0.570435 1.84829e-20)
(-0.847648 -0.569846 -3.36121e-20)
(-0.653577 -0.567243 0)
(-0.459022 -0.562552 0)
(-0.264586 -0.555728 2.73056e-20)
(-0.0710248 -0.546851 4.50409e-20)
(0.120755 -0.535899 0)
(0.309931 -0.522733 -1.61402e-20)
(0.495669 -0.507386 0)
(0.677172 -0.48991 4.13634e-20)
(0.853586 -0.470356 3.20017e-21)
(1.02404 -0.448787 -3.00135e-21)
(1.18766 -0.425279 -2.13529e-20)
(1.34361 -0.399926 0)
(1.49107 -0.372835 1.7052e-20)
(1.62924 -0.344125 2.22433e-21)
(1.75736 -0.313917 0)
(1.87473 -0.282333 0)
(1.98068 -0.249483 0)
(2.07459 -0.215455 -7.11183e-21)
(2.15593 -0.180306 0)
(2.22425 -0.144064 0)
(2.27915 -0.106766 0)
(2.32033 -0.0683499 0)
(2.34913 -0.0275752 0)
(2.36691 0.0167448 3.45199e-21)
(2.37417 0.0645903 0)
(2.37106 0.115406 3.32884e-21)
(2.35686 0.167902 3.08771e-21)
(2.32974 0.219629 -2.53335e-21)
(2.28671 0.266863 0)
(2.22392 0.304911 -7.60653e-22)
(2.13745 0.329246 0)
(2.0248 0.337791 1.48436e-21)
(1.88915 0.33272 -2.84333e-21)
(1.73684 0.314952 -1.138e-20)
(1.57504 0.285751 0)
(1.4112 0.250652 -1.65239e-20)
(1.25523 0.216616 -6.29421e-21)
(1.1151 0.189103 0)
(0.99369 0.169115 -1.38327e-20)
(0.889235 0.154165 -1.40909e-20)
(0.79824 0.141346 2.10848e-20)
(0.717781 0.128854 0)
(0.645998 0.116116 6.78478e-21)
(0.581851 0.103314 6.60519e-21)
(0.524781 0.0908863 1.92493e-20)
(0.474421 0.0792162 0)
(0.430399 0.0685263 0)
(0.392265 0.0588887 0)
(0.359495 0.0502811 5.42934e-21)
(0.331538 0.0426375 0)
(0.307855 0.0358785 0)
(0.287943 0.0299226 -4.76163e-21)
(0.271346 0.0246917 -4.60344e-21)
(0.257655 0.0201119 0)
(0.246507 0.0161154 0)
(0.23758 0.0126411 -8.55906e-21)
(0.230588 0.00963503 0)
(0.225277 0.00705048 8.33658e-21)
(0.221418 0.00484689 8.27316e-21)
(0.218808 0.00298842 0)
(0.217265 0.00144167 0)
(0.216623 0.000169952 -8.208e-21)
(0.216734 -0.000860379 -7.20456e-24)
(0.217465 -0.0016824 -8.39617e-24)
(0.218697 -0.00232924 0)
(0.220328 -0.00282949 -1.65475e-20)
(0.222271 -0.003208 0)
(0.224449 -0.00348521 0)
(0.226802 -0.00367672 0)
(0.229273 -0.00379351 8.37714e-21)
(0.231819 -0.00384323 0)
(0.2344 -0.00383252 -1.68022e-20)
(0.236982 -0.00376958 -8.42487e-21)
(0.239537 -0.00366525 0)
(0.242041 -0.00353245 -8.43709e-21)
(0.244476 -0.00338424 0)
(0.246829 -0.00323191 0)
(0.249094 -0.00308365 -2.52518e-20)
(0.251269 -0.00294408 1.68042e-20)
(0.253353 -0.00281395 0)
(0.255349 -0.00268997 1.67373e-20)
(0.257259 -0.00256554 -8.35669e-21)
(0.259082 -0.00243326 0)
(0.260817 -0.00228858 0)
(0.262461 -0.00213208 0)
(0.264009 -0.00196909 -2.47454e-20)
(0.265455 -0.00180689 0)
(0.266798 -0.00165151 -8.19241e-21)
(0.268037 -0.00150572 0)
(0.269173 -0.00136858 0)
(0.270208 -0.00123537 0)
(0.271138 -0.00109712 0)
(0.271954 -0.000940401 0)
(0.272642 -0.000749652 0)
(0.273183 -0.000509905 -1.59171e-20)
(0.273548 -0.000216346 0)
(0.273698 0.000131767 -7.89899e-21)
(0.273591 0.000534416 2.3603e-20)
(0.273188 0.00099296 0)
(0.272434 0.00151367 0)
(0.271345 0.00211605 -1.55813e-20)
(0.269601 0.00284247 -1.55427e-20)
(0.268368 0.00401153 1.55309e-20)
(0.263408 0.00663165 1.54763e-20)
(0.0271789 -0.726744 -3.93023e-20)
(0.0738895 -0.696737 -2.98875e-20)
(0.0895177 -0.592615 -1.73582e-20)
(0.0952327 -0.481235 -8.00446e-21)
(0.090533 -0.368618 0)
(0.074913 -0.25698 1.57424e-20)
(0.048363 -0.147738 -7.85285e-21)
(0.0106893 -0.0418234 0)
(-0.0387265 0.0601965 -8.41291e-21)
(-0.100784 0.158126 0)
(-0.176522 0.252162 1.56558e-20)
(-0.267069 0.342728 0)
(-0.373885 0.43042 7.33512e-21)
(-0.498964 0.516331 1.37924e-20)
(-0.644626 0.602518 -1.28859e-20)
(-0.812972 0.691969 0)
(-1.00502 0.787604 -1.12472e-20)
(-1.21983 0.890898 0)
(-1.45398 1.00068 0)
(-1.70134 1.11264 -9.7634e-21)
(-1.95356 1.21982 0)
(-2.20114 1.31404 -1.86094e-21)
(-2.43495 1.38765 0)
(-2.64767 1.43515 0)
(-2.83471 1.45399 2.89893e-21)
(-2.99454 1.44455 -1.20027e-20)
(-3.12835 1.40958 -1.62746e-20)
(-3.2394 1.35342 -1.41814e-20)
(-3.33207 1.28111 0)
(-3.41099 1.1977 -3.64914e-20)
(-3.48038 1.10776 0)
(-3.54366 1.01504 -2.20262e-20)
(-3.60326 0.922404 0)
(-3.66065 0.831861 0)
(-3.71651 0.744682 2.49174e-20)
(-3.7709 0.661567 0)
(-3.82344 0.582796 -2.65066e-20)
(-3.87355 0.508362 1.71095e-21)
(-3.92048 0.438078 5.39838e-20)
(-3.96349 0.371652 -5.658e-20)
(-4.00183 0.308745 0)
(-4.03484 0.249001 0)
(-4.06191 0.192079 -3.04668e-20)
(-4.08251 0.137658 0)
(-4.09618 0.0854589 -2.82115e-20)
(-4.10251 0.035233 2.81354e-20)
(-4.10118 -0.0132701 2.78602e-20)
(-4.09196 -0.0602956 0)
(-4.07475 -0.106014 -2.68271e-20)
(-4.04949 -0.150499 -2.61471e-20)
(-4.01614 -0.193766 5.2864e-20)
(-3.97465 -0.235827 -2.44756e-20)
(-3.92503 -0.276686 -2.34933e-20)
(-3.86728 -0.31634 0)
(-3.80145 -0.354774 0)
(-3.72758 -0.391966 2.00285e-20)
(-3.64578 -0.427882 0)
(-3.55613 -0.462483 0)
(-3.45876 -0.495723 -3.18526e-20)
(-3.35383 -0.527547 -2.89021e-20)
(-3.24148 -0.557901 0)
(-3.12191 -0.586724 0)
(-2.99533 -0.613951 0)
(-2.86197 -0.639516 0)
(-2.72208 -0.663347 -1.32579e-20)
(-2.57593 -0.685372 1.26363e-20)
(-2.42385 -0.705513 6.90924e-21)
(-2.26615 -0.723691 1.01979e-20)