/*--------------------------------*- C++ -*----------------------------------*\
  =========                 |
  \\      /  F ield         | OpenFOAM: The Open Source CFD Toolbox
   \\    /   O peration     | Website:  https://openfoam.org
    \\  /    A nd           | Version:  9
     \\/     M anipulation  |
\*---------------------------------------------------------------------------*/
FoamFile
{
    format      ascii;
    class       volScalarField;
    location    "0.09";
    object      epsilon;
}
// * * * * * * * * * * * * * * * * * * * * * * * * * * * * * * * * * * * * * //

dimensions      [0 2 -3 0 0 0 0];

internalField   nonuniform List<scalar> 
12225
(
209.93
126.521
82.02
58.6284
45.9901
38.6201
33.7944
30.2408
27.3902
24.9816
22.8817
21.0126
19.3268
17.8002
16.4407
15.3524
15.2141
26.0582
62.2463
55.2384
42.2929
33.3483
27.5896
23.7436
21.0373
19.0147
17.4138
16.0866
14.9449
13.9313
13.005
12.1364
11.3071
10.5468
10.2604
13.9655
31.7161
33.3518
28.8765
24.358
20.822
18.1791
16.1961
14.6712
13.4622
12.477
11.6556
10.9573
10.3531
9.8219
9.35365
8.9895
9.09217
11.6817
21.9498
23.938
22.2152
19.6929
17.3492
15.4024
13.8388
12.5862
11.5732
10.7446
10.061
9.4945
9.02589
8.64379
8.35017
8.19996
8.5036
10.5265
17.8724
19.1319
18.3316
16.787
15.1531
13.6728
12.4086
11.3523
10.4749
9.74688
9.14407
8.64875
8.24944
7.94214
7.73747
7.69504
8.06398
9.65059
15.9089
16.4349
15.895
14.8306
13.6236
12.462
11.4208
10.5181
9.74781
9.09692
8.55232
8.10386
7.74577
7.4791
7.31897
7.32208
7.67888
8.90491
14.8915
14.8418
14.31
13.4679
12.5118
11.5644
10.6877
9.90574
9.22291
8.63552
8.13767
7.72446
7.3941
7.15064
7.01053
7.02324
7.32919
8.25766
14.346
13.8779
13.2634
12.5075
11.6913
10.8829
10.1239
9.4348
8.82264
8.28806
7.82922
7.4445
7.13453
6.90475
6.77089
6.77356
7.01338
7.70003
14.0496
13.2911
12.5717
11.8316
11.086
10.3631
9.685
9.06475
8.50809
8.01665
7.59033
7.22916
6.93495
6.71338
6.57826
6.56138
6.73317
7.2267
13.8885
12.9363
12.1192
11.3615
10.6444
9.96986
9.34439
8.77302
8.25829
7.80097
7.40115
7.05932
6.7775
6.56084
6.42067
6.38089
6.48983
6.83162
13.8013
12.7249
11.8286
11.041
10.3285
9.67772
9.08395
8.54539
8.0609
7.6295
7.25057
6.92422
6.65205
6.43821
6.29142
6.229
6.28342
6.50768
13.7583
12.6117
11.6616
10.8457
10.1267
9.48379
8.90574
8.38599
7.92042
7.50627
7.1418
6.82642
6.56097
6.34844
6.1953
6.11401
6.12685
6.26861
13.7338
12.5425
11.5532
10.7125
9.98305
9.34087
8.77065
8.26248
7.80978
7.4081
7.05454
6.74761
6.48724
6.27516
6.11575
6.01742
5.99479
6.06995
13.719
12.4983
11.4799
10.6174
9.87581
9.2301
8.66275
8.16152
7.71783
7.32564
6.98086
6.68092
6.42472
6.21265
6.04703
5.93286
5.87879
5.89782
13.711
12.4734
11.4361
10.5574
9.80492
9.15394
8.5862
8.08818
7.64995
7.26426
6.92588
6.63122
6.37808
6.16556
5.99417
5.86611
5.78574
5.75989
13.7072
12.4611
11.4136
10.5252
9.76521
9.1098
8.5407
8.04394
7.60884
7.22732
6.89332
6.60236
6.35126
6.13798
5.96153
5.82205
5.72097
5.66123
13.7056
12.456
11.4042
10.5116
9.74817
9.09082
8.52141
8.02585
7.59314
7.21471
6.88392
6.59563
6.34589
6.13177
5.95119
5.80288
5.68643
5.60253
13.7048
12.4542
11.4016
10.5084
9.74516
9.0887
8.52098
8.02781
7.59798
7.22262
6.8947
6.60863
6.35993
6.14505
5.96121
5.80629
5.67886
5.57847
13.7045
12.4543
11.4029
10.5119
9.75153
9.09844
8.53437
8.0449
7.6186
7.24637
6.92094
6.63642
6.38806
6.17196
5.98496
5.82451
5.68875
5.57677
13.7054
12.4582
11.4116
10.5264
9.77192
9.12418
8.56448
8.07821
7.65389
7.28245
6.95666
6.67069
6.41979
6.20006
6.00828
5.84183
5.69878
5.57822
13.7096
12.4723
11.4381
10.565
9.82041
9.17942
8.62325
8.13764
7.71166
7.3368
7.00631
6.71472
6.45755
6.23104
6.03206
5.85804
5.70705
5.57832
13.7241
12.5165
11.5135
10.6654
9.9365
9.30213
8.74522
8.25357
7.81815
7.43191
7.08916
6.78512
6.51573
6.27745
6.06723
5.88248
5.7213
5.58298
13.7682
12.6383
11.702
10.8956
10.1831
9.54602
8.97421
8.46092
8.001
7.58989
7.22334
6.8973
6.60799
6.35189
6.12578
5.92688
5.75307
5.60361
13.8914
12.9383
12.1191
11.3614
10.6477
9.97929
9.36088
8.79694
8.28822
7.83281
7.42743
7.06808
6.75056
6.47072
6.22466
6.00895
5.82091
5.65955
14.2149
13.6166
12.9597
12.2187
11.4425
10.6792
9.96035
9.30206
8.71113
8.18749
7.72667
7.32289
6.97001
6.66213
6.39385
6.16047
5.95829
5.78571
15.0304
15.0656
14.5526
13.7011
12.7239
11.75
10.8446
10.0335
9.32119
8.70344
8.1715
7.7144
7.32177
6.98436
6.69423
6.44468
6.23054
6.04922
17.0815
18.1137
17.5021
16.2029
14.7493
13.3721
12.1554
11.1151
10.2377
9.50056
8.88415
8.36797
7.93438
7.56893
7.25997
6.99819
6.77644
6.59075
22.6311
24.808
23.1167
20.546
18.0818
15.9812
14.27
12.8981
11.7995
10.915
10.1978
9.6162
9.14106
8.75033
8.4273
8.15923
7.93662
7.75362
41.0906
41.4522
35.11
29.1729
24.5602
21.1057
18.5453
16.638
15.1958
14.0866
13.2195
12.544
12.013
11.5917
11.2552
10.9859
10.771
10.602
136.016
97.1331
71.6758
54.9422
43.9029
36.5706
31.6227
28.1906
25.7292
23.9083
22.5349
21.5087
20.7214
20.1077
19.6262
19.2486
18.9549
18.7305
11.0783
4.36477
5.3797
6.12405
6.68718
7.12383
7.47337
7.76721
8.03441
8.30552
8.55842
8.71203
8.44332
8.74014
8.49374
8.75684
8.85617
8.67017
8.76943
8.95965
41.2503
9.04954
9.07327
38.8033
39.7067
9.12162
42.7482
47.9607
53.534
59.2919
65.1223
70.9396
76.6798
82.2963
87.7567
93.0394
98.1319
103.028
107.726
112.229
116.541
120.67
124.623
128.409
132.037
135.518
138.865
142.092
145.216
148.26
151.251
154.225
157.194
160.033
162.75
165.35
167.832
170.194
172.429
174.53
176.489
178.296
179.94
181.412
182.697
183.784
184.658
185.307
185.716
185.871
185.759
185.365
184.677
183.683
182.373
180.738
178.772
176.471
173.832
170.858
167.553
163.926
159.989
155.758
151.255
146.508
141.563
136.526
131.836
128.755
126.557
124.423
122.213
119.903
117.497
115.012
112.467
109.88
107.272
104.659
102.057
99.4809
96.9398
94.4425
91.9945
89.5988
87.2561
84.9647
82.7209
80.519
78.3515
76.209
74.0807
71.9526
69.8076
67.6239
65.3587
62.9545
60.4874
57.8947
55.178
53.1516
12.5022
12.4098
12.3093
12.2272
12.1846
12.182
12.1794
12.0793
11.734
10.9927
9.78121
8.17532
6.40844
4.77985
3.50755
2.64544
2.12216
1.82934
1.67679
1.60489
1.57809
1.57609
1.58738
1.60536
1.62619
1.64757
1.66814
1.68715
1.70435
1.71996
1.73408
1.74547
1.75399
1.75986
1.76342
1.76504
1.76506
1.76384
1.76164
1.75873
1.75531
1.75155
1.74759
1.74352
1.73944
1.7354
1.73144
1.72755
1.72372
1.72025
1.71715
1.71414
1.71099
1.70749
1.70332
1.69804
1.68996
1.67734
16.5308
11.6561
10.3686
9.66148
9.19197
8.90918
8.81237
8.92114
9.28239
9.92609
10.913
12.4058
14.7093
16.6581
19.7084
22.4042
25.9153
30.1478
33.7352
37.1071
40.6908
42.0719
44.2052
46.746
47.2202
47.4268
49.8163
50.4472
50.827
51.1303
51.3965
51.6485
51.9033
52.173
52.4646
52.7816
53.125
53.4937
53.8862
54.2999
54.7327
55.1825
55.6476
56.1274
56.622
57.133
57.6634
58.2183
58.8049
59.4334
60.1173
60.8724
61.7383
62.609
63.4721
64.3251
65.1659
65.9922
66.8012
67.5898
68.3546
69.0916
69.7967
70.4653
71.0923
71.6723
72.1997
72.6684
73.0721
73.4044
73.6585
73.8277
73.9054
73.885
73.7602
73.5253
73.1749
72.7044
72.1101
71.3893
70.5403
69.563
68.4586
67.2304
65.8841
64.4295
62.8834
61.278
59.681
58.2143
56.9171
55.6413
54.3452
53.0202
51.6685
50.2969
48.9134
47.5262
46.1432
44.7716
43.4175
42.0864
40.7823
39.5085
38.2674
37.0601
35.8874
34.7491
33.6443
32.5719
31.53
30.5166
29.5292
28.5653
27.6217
26.6949
25.7811
24.8835
24.0831
23.3341
22.6242
22.0045
18.4269
16.2043
14.8176
13.9986
13.5947
13.4912
13.5523
13.5932
13.3915
12.7421
11.5389
9.84137
7.87522
5.94682
4.31204
3.08786
2.25738
1.73353
1.41905
1.23612
1.13185
1.07347
1.04167
1.02534
1.01811
1.01622
1.01745
1.02043
1.02437
1.02882
1.03347
1.0376
1.04096
1.0435
1.04526
1.04633
1.04681
1.0468
1.04641
1.04571
1.04478
1.04368
1.04246
1.04116
1.03983
1.03848
1.03715
1.03584
1.03458
1.03356
1.03275
1.03211
1.03167
1.03151
1.03189
1.03371
1.03838
1.05614
25.2938
16.3422
13.8657
12.6764
12.0165
11.72
11.7663
12.2008
13.0652
14.3824
16.2528
18.8282
22.0416
25.6485
29.6215
33.5781
37.3381
40.5905
43.0137
44.5595
45.2918
45.236
44.8209
44.1855
43.3639
42.626
42.1034
41.5161
41.0144
40.6277
40.3483
40.1622
40.0547
40.0114
40.0193
40.0676
40.1479
40.2543
40.3831
40.5325
40.702
40.8923
41.1046
41.3408
41.6031
41.8937
42.2151
42.5698
42.9602
43.3885
43.8565
44.365
44.9054
45.4615
46.0287
46.6047
47.188
47.7768
48.3691
48.9626
49.5547
50.1425
50.7227
51.2916
51.8453
52.3793
52.8888
53.3688
53.8137
54.2179
54.5752
54.8795
55.1245
55.3038
55.4113
55.4408
55.3866
55.2436
55.007
54.6728
54.2382
53.701
53.0607
52.318
51.4756
50.5384
49.5148
48.417
47.2617
46.0733
44.9264
43.7777
42.6118
41.4263
40.225
39.0145
37.8018
36.5942
35.3984
34.2206
33.0657
31.9381
30.8409
29.7766
28.7467
27.7518
26.7923
25.8676
24.9769
24.1191
23.2926
22.4961
21.7278
20.9861
20.2695
19.5763
18.9057
18.2592
17.6485
17.0861
16.561
16.034
15.2211
14.3727
13.6069
13.001
12.6138
12.4758
12.5619
12.7599
12.8665
12.6375
11.8855
10.576
8.85673
6.99478
5.26076
3.83345
2.77202
2.04447
1.57567
1.28627
1.11236
1.00952
0.949474
0.915042
0.896003
0.886267
0.882151
0.881392
0.882579
0.884831
0.887592
0.890312
0.892675
0.894549
0.895901
0.896754
0.897158
0.897176
0.896875
0.896319
0.895564
0.894662
0.893654
0.89258
0.891471
0.890356
0.889259
0.888202
0.887209
0.886347
0.885674
0.885194
0.884962
0.885109
0.88591
0.888113
0.893025
0.90567
34.988
21.1233
17.6249
16.1764
15.5426
15.4495
15.8694
16.8187
18.2441
20.203
22.7236
25.7719
29.2027
32.7701
36.1867
39.1332
41.3594
42.7107
43.1689
42.8644
42.0186
40.8763
39.6727
38.5454
37.5689
36.7869
36.1851
35.7151
35.3716
35.1369
34.9882
34.9045
34.868
34.8653
34.8863
34.9243
34.9756
35.0385
35.1133
35.2011
35.304
35.4241
35.564
35.7259
35.9119
36.1239
36.3635
36.6318
36.9296
37.2572
37.6144
38.0003
38.4096
38.8377
39.2826
39.7432
40.2181
40.7059
41.2051
41.7137
42.2296
42.7503
43.273
43.7943
44.3107
44.8181
45.3123
45.7884
46.2414
46.6656
47.0553
47.4045
47.7069
47.9562
48.146
48.2702
48.3226
48.2977
48.1903
47.9958
47.7106
47.3318
46.8577
46.2878
45.6231
44.866
44.0203
43.0909
42.0825
41.0089
39.9327
38.84
37.7272
36.5964
35.4532
34.3046
33.1581
32.0209
30.8997
29.8002
28.7275
27.6856
26.6773
25.7047
24.7691
23.8709
23.0099
22.1854
21.3963
20.6412
19.9187
19.2272
18.565
17.9308
17.323
16.7407
16.1829
15.65
15.1449
14.6739
14.2343
13.8135
13.3667
12.9019
12.4448
12.0358
11.727
11.5728
11.6044
11.7923
12.0133
12.061
11.7172
10.8566
9.5158
7.87778
6.1873
4.65764
3.41628
2.49746
1.86681
1.45798
1.20305
1.04786
0.954827
0.899858
0.868096
0.850494
0.841527
0.837777
0.837107
0.838167
0.840106
0.842305
0.844364
0.846077
0.847354
0.84818
0.848577
0.848593
0.848286
0.847715
0.846937
0.846004
0.844962
0.843852
0.842707
0.84156
0.840436
0.839362
0.838365
0.837486
0.836781
0.836287
0.836073
0.836275
0.837146
0.839273
0.843579
0.852339
45.4171
26.5222
22.149
20.5406
20.0045
20.1505
20.8703
22.0275
23.6522
25.7377
28.2172
30.9491
33.7187
36.2669
38.3389
39.7379
40.3741
40.2812
39.6019
38.5435
37.3221
36.1171
35.048
34.1687
33.4877
32.9876
32.636
32.3992
32.2517
32.1709
32.1371
32.1343
32.1508
32.1782
32.2115
32.2481
32.2874
32.3304
32.3788
32.4352
32.502
32.5821
32.6779
32.7916
32.9254
33.0809
33.2592
33.4615
33.6883
33.9398
34.2161
34.5169
34.8391
35.181
35.5417
35.9204
36.3161
36.7279
37.1543
37.594
38.0449
38.505
38.9718
39.4424
39.9135
40.3816
40.8426
41.292
41.7252
42.1368
42.5213
42.873
43.1857
43.4532
43.6692
43.8275
43.9219
43.9466
43.8962
43.7658
43.5512
43.2491
42.857
42.3737
41.7988
41.1333
40.3787
39.537
38.6095
37.6134
36.5956
35.5528
34.4866
33.402
32.3059
31.206
30.11
29.0255
27.9593
26.9173
25.9045
24.9248
23.9811
23.0754
22.2087
21.3812
20.5925
19.8416
19.1273
18.4481
17.8022
17.1878
16.6034
16.0474
15.5185
15.0154
14.5373
14.084
13.6563
13.2567
12.8843
12.5352
12.1989
11.8701
11.5515
11.257
11.0142
10.8629
10.8427
10.9658
11.1792
11.3449
11.2684
10.7806
9.82399
8.48345
6.94455
5.41765
4.07205
3.00108
2.2198
1.68844
1.34507
1.13051
0.999243
0.920178
0.873413
0.846553
0.831928
0.824765
0.822068
0.821942
0.823185
0.825008
0.826894
0.82855
0.829831
0.83068
0.831099
0.831121
0.830798
0.830189
0.829354
0.828349
0.827223
0.826023
0.824787
0.823548
0.822339
0.821187
0.820122
0.819179
0.818409
0.817863
0.817613
0.817791
0.818619
0.820542
0.824162
0.830483
56.1262
32.65
27.3756
25.582
25.0811
25.2873
25.9149
26.942
28.3391
30.0379
31.9163
33.8015
35.4926
36.7976
37.5763
37.773
37.4283
36.664
35.6465
34.5439
33.4925
32.5801
31.8465
31.2945
30.9048
30.6482
30.4944
30.4158
30.3903
30.3997
30.4301
30.4708
30.5147
30.5573
30.5963
30.6312
30.663
30.6933
30.7244
30.7591
30.7998
30.8493
30.9101
30.9843
31.0739
31.1805
31.3055
31.45
31.6149
31.8007
32.0078
32.2364
32.4846
32.7518
33.0376
33.3413
33.6625
34.0004
34.3541
34.7222
35.1033
35.4956
35.8971
36.3051
36.717
37.1295
37.5391
37.9416
38.3328
38.7079
39.0616
39.3886
39.6831
39.9392
40.1507
40.3115
40.4156
40.4571
40.4306
40.3309
40.1536
39.8949
39.5519
39.1224
38.6055
38.0007
37.3086
36.5298
35.6643
34.7357
33.7758
32.7855
31.7694
30.7339
29.6869
28.6364
27.5908
26.5578
25.5444
24.5568
23.6001
22.6782
21.794
20.9495
20.1456
19.3823
18.6591
17.9749
17.328
16.7169
16.1395
15.5941
15.0787
14.5918
14.1318
13.6976
13.2882
12.903
12.542
12.206
11.8943
11.6052
11.3353
11.0809
10.8405
10.6181
10.427
10.2915
10.2436
10.3074
10.4708
10.6565
10.7189
10.4901
9.85721
8.81992
7.4907
6.04778
4.67322
3.50197
2.59618
1.95011
1.51706
1.23907
1.06549
0.959111
0.895018
0.857285
0.835904
0.824597
0.8194
0.817798
0.818188
0.819545
0.821203
0.82277
0.824031
0.824888
0.825315
0.825332
0.824983
0.824326
0.823423
0.822333
0.821111
0.819808
0.818465
0.817121
0.81581
0.814563
0.813411
0.81239
0.811544
0.81093
0.81062
0.810733
0.811459
0.813126
0.816106
0.820826
66.22
38.8258
32.7413
30.7424
30.0859
30.0168
30.3463
30.9853
31.8595
32.8745
33.906
34.8109
35.4526
35.7319
35.6104
35.1197
34.3495
33.4215
32.4592
31.5624
30.7955
30.1874
29.739
29.4337
29.2464
29.1506
29.1213
29.1376
29.1827
29.2434
29.3099
29.3754
29.4353
29.4872
29.5303
29.5648
29.5921
29.6141
29.6331
29.6516
29.672
29.6968
29.7284
29.7687
29.8199
29.8835
29.961
30.0537
30.1627
30.2888
30.4327
30.5949
30.7744
30.9708
31.1841
31.4139
31.6601
31.9222
32.1994
32.491
32.7957
33.1121
33.4387
33.7733
34.1137
34.4571
34.8005
35.1404
35.4729
35.7938
36.0984
36.3819
36.6389
36.8638
37.051
37.1947
37.2891
37.3283
37.307
37.2201
37.0627
36.831
36.5214
36.1313
35.6589
35.103
34.4633
33.7395
32.9312
32.0682
31.1679
30.2338
29.2718
28.2892
27.2945
26.2962
25.3029
24.3225
23.3625
22.4292
21.5279
20.6627
19.8366
19.0515
18.3083
17.6069
16.9467
16.3263
15.744
15.1979
14.6859
14.2059
13.7559
13.3341
12.939
12.5691
12.2233
11.9008
11.6012
11.3246
11.0698
10.836
10.6212
10.423
10.2393
10.0704
9.92241
9.80942
9.75383
9.77916
9.89195
10.0556
10.1731
10.1027
9.7124
8.94261
7.83703
6.52687
5.18368
3.96412
2.96773
2.22347
1.70581
1.36396
1.14587
1.00983
0.926449
0.876333
0.847078
0.830811
0.822528
0.819036
0.818288
0.818977
0.820263
0.821634
0.822797
0.823602
0.823994
0.823973
0.823574
0.822852
0.821868
0.820684
0.819359
0.817947
0.816494
0.815041
0.813625
0.812279
0.811036
0.80993
0.809005
0.808314
0.807927
0.807951
0.808538
0.809929
0.812343
0.815938
75.1973
44.5315
37.6868
35.2684
34.2505
33.8512
33.7874
33.9247
34.1718
34.4425
34.6462
34.6964
34.529
34.1183
33.4846
32.6884
31.8134
30.9455
30.1553
29.4887
28.9662
28.5871
28.3371
28.1949
28.1369
28.1411
28.188
28.2616
28.3493
28.4413
28.5307
28.6127
28.6843
28.7441
28.7917
28.8278
28.8537
28.8712
28.8824
28.8893
28.8944
28.8997
28.9074
28.9195
28.9378
28.964
28.9997
29.0461
29.1046
29.1761
29.2616
29.3619
29.4763
29.6049
29.7476
29.9045
30.0755
30.2605
30.459
30.6705
30.8943
31.1294
31.3745
31.6282
31.8885
32.1534
32.4203
32.6864
32.9485
33.2029
33.4456
33.6724
33.8785
34.059
34.2087
34.3221
34.3938
34.4185
34.3908
34.3056
34.1582
33.9442
33.6598
33.302
32.8681
32.3562
31.7652
31.0942
30.3441
29.5468
28.708
27.8326
26.9274
26.0002
25.0598
24.1149
23.1744
22.2466
21.3393
20.459
19.6114
18.8009
18.0305
17.3022
16.617
15.9748
15.3747
14.8153
14.2947
13.8107
13.3611
12.9436
12.5559
12.1961
11.8624
11.5533
11.2673
11.0037
10.7616
10.5406
10.3397
10.1577
9.99315
9.84394
9.70785
9.58382
9.47407
9.38654
9.3362
9.34227
9.41758
9.54904
9.67714
9.69316
9.46962
8.91454
8.01743
6.86003
5.58901
4.36536
3.31346
2.49262
1.90058
1.49811
1.23547
1.06861
0.96458
0.900866
0.862739
0.840726
0.82875
0.822905
0.820672
0.820434
0.821148
0.82217
0.823117
0.823781
0.824067
0.823955
0.823467
0.822651
0.821565
0.820273
0.818837
0.817311
0.815744
0.814182
0.81266
0.811215
0.80988
0.808689
0.807682
0.806908
0.806434
0.80635
0.806778
0.807891
0.809807
0.812564
82.6298
49.2318
41.4353
38.5838
37.2714
36.5627
36.1137
35.7679
35.4385
35.0661
34.6059
34.0282
33.3248
32.5138
31.6366
30.7494
29.9095
29.1647
28.5457
28.065
27.72
27.4972
27.3774
27.3396
27.3633
27.4303
27.5251
27.6351
27.7506
27.8642
27.9704
28.0657
28.1478
28.2159
28.2697
28.3098
28.3375
28.3541
28.3615
28.3614
28.3559
28.3468
28.3361
28.3255
28.3168
28.3116
28.3113
28.3174
28.3311
28.3536
28.386
28.4291
28.4829
28.5474
28.6227
28.7091
28.8067
28.9155
29.0356
29.1665
29.3081
29.4596
29.6203
29.7892
29.9649
30.146
30.3306
30.5164
30.7009
30.8812
31.0541
31.2158
31.3625
31.4898
31.5931
31.6676
31.7085
31.7106
31.669
31.5787
31.4349
31.2333
30.9697
30.6405
30.2424
29.7727
29.2292
28.6099
27.9238
27.1909
26.414
25.5985
24.7512
23.8799
22.9935
22.1011
21.2116
20.3339
19.4761
18.6451
17.8471
17.0868
16.3675
15.6914
15.0595
14.4717
13.9272
13.4243
12.961
12.535
12.1437
11.7846
11.4553
11.1536
10.8774
10.625
10.3949
10.1859
9.99708
9.82771
9.67694
9.54322
9.42499
9.32019
9.2265
9.14211
9.06723
9.00604
8.96831
8.96871
9.02085
9.12375
9.24325
9.3005
9.18412
8.79027
8.07165
7.06631
5.88987
4.69513
3.61928
2.74502
2.09217
1.63541
1.33035
1.1328
1.00751
0.929393
0.881613
0.85317
0.836931
0.828271
0.824185
0.822728
0.822641
0.823131
0.823716
0.824123
0.824214
0.823941
0.82331
0.822358
0.821142
0.819722
0.818159
0.81651
0.814825
0.81315
0.811523
0.809979
0.808552
0.807274
0.806184
0.805324
0.804755
0.804553
0.804811
0.805654
0.807133
0.809237
87.1897
52.0366
43.7149
40.6087
39.0885
38.1389
37.3828
36.6572
35.8891
35.0492
34.1336
33.1556
32.1428
31.133
30.1687
29.2904
28.5295
27.9052
27.4229
27.077
26.8536
26.7343
26.6991
26.7284
26.8047
26.9124
27.0391
27.1743
27.31
27.4404
27.5609
27.6686
27.7618
27.8394
27.9014
27.9482
27.9807
28
28.0075
28.0047
27.9933
27.9749
27.9512
27.9236
27.8938
27.8633
27.8333
27.8053
27.7805
27.7602
27.7453
27.7371
27.7357
27.7411
27.7538
27.7739
27.8018
27.8378
27.8821
27.9347
27.9956
28.0646
28.1413
28.2253
28.3158
28.4117
28.512
28.615
28.7189
28.8216
28.9205
29.0128
29.0954
29.1646
29.2166
29.2472
29.2522
29.227
29.167
29.0675
28.9239
28.7317
28.4864
28.1841
27.8208
27.3929
26.8974
26.3318
25.7115
25.0423
24.3273
23.5715
22.7814
21.9646
21.13
20.2867
19.4441
18.6115
17.7974
17.0095
16.2544
15.5373
14.862
14.231
13.6455
13.1055
12.6101
12.1575
11.7456
11.3717
11.0332
10.7273
10.4512
10.2024
9.9788
9.77826
9.59915
9.44006
9.29986
9.17764
9.07254
8.98281
8.90671
8.84206
8.7864
8.73749
8.69437
8.6589
8.63732
8.64052
8.6808
8.76272
8.86795
8.94096
8.88952
8.61089
8.03642
7.16991
6.09592
4.95171
3.87748
2.97172
2.27307
1.77052
1.427
1.20018
1.05381
0.960957
0.90302
0.86762
0.846629
0.834725
0.828425
0.825449
0.824315
0.824072
0.824131
0.824148
0.823938
0.823419
0.822579
0.821442
0.820057
0.818481
0.816773
0.814988
0.813177
0.811384
0.809649
0.808006
0.806487
0.805123
0.803948
0.803
0.802332
0.802005
0.802091
0.802676
0.803773
0.805351
89.4147
53.4083
44.7601
41.4827
39.824
38.7162
37.7606
36.7921
35.7499
34.6281
33.4513
32.26
31.1005
30.0175
29.0478
28.217
27.538
27.0119
26.6303
26.3779
26.2361
26.1849
26.2049
26.2783
26.3895
26.5252
26.6745
26.8287
26.9809
27.1259
27.26
27.3804
27.4855
27.5743
27.6466
27.7025
27.7426
27.7678
27.779
27.7776
27.7648
27.7419
27.7103
27.6713
27.6263
27.5764
27.5231
27.4675
27.4108
27.3542
27.2987
27.2454
27.195
27.1476
27.1034
27.063
27.0266
26.9949
26.9682
26.9468
26.9311
26.9212
26.9172
26.919
26.9265
26.9391
26.9564
26.9774
27.0011
27.026
27.0505
27.0724
27.0895
27.0989
27.0977
27.0824
27.0493
26.9945
26.914
26.8034
26.6582
26.474
26.2462
25.9704
25.6418
25.2561
24.8088
24.3032
23.7467
23.1403
22.4863
21.789
21.0542
20.2891
19.5023
18.7031
17.9013
17.1066
16.3284
15.5751
14.854
14.1712
13.5309
12.9361
12.3883
11.8877
11.4333
11.0233
10.6555
10.3269
10.0346
9.77542
9.54643
9.34479
9.16796
9.01369
8.88007
8.76548
8.66863
8.58846
8.5241
8.47362
8.43506
8.4061
8.38414
8.36665
8.35196
8.3405
8.33611
8.34678
8.38291
8.45115
8.54252
8.61825
8.6039
8.40447
7.94154
7.19468
6.22103
5.13921
4.0855
3.16723
2.43764
1.89894
1.5223
1.26874
1.10225
0.994819
0.926525
0.883825
0.857701
0.842186
0.833337
0.828552
0.826123
0.824937
0.824297
0.82378
0.823151
0.822292
0.821168
0.819787
0.818189
0.816423
0.814545
0.812607
0.810659
0.808744
0.806897
0.805154
0.803542
0.802092
0.800831
0.799795
0.799025
0.798572
0.79849
0.798835
0.799598
0.800743
89.9114
53.6469
44.8065
41.4204
39.686
38.5027
37.4564
36.3785
35.2148
33.972
32.6899
31.4225
30.2248
29.1423
28.2065
27.4334
26.8251
26.3732
26.0622
25.8731
25.7852
25.7787
25.8351
25.9379
26.0731
26.2289
26.3955
26.5653
26.7319
26.8908
27.0383
27.1719
27.29
27.3914
27.4757
27.5429
27.5931
27.627
27.6453
27.6488
27.6385
27.6155
27.5807
27.5354
27.4805
27.4172
27.3466
27.2696
27.1875
27.1012
27.0118
26.9203
26.8276
26.7339
26.6395
26.5449
26.4507
26.3575
26.2659
26.1765
26.0899
26.0066
25.9271
25.8517
25.7807
25.7143
25.6524
25.5949
25.5413
25.4911
25.4433
25.3966
25.3496
25.3002
25.2463
25.1853
25.1142
25.0298
24.9285
24.8064
24.6595
24.4833
24.2731
24.024
23.7309
23.3881
22.9929
22.5488
22.0545
21.5097
20.9155
20.275
19.5928
18.8755
18.1315
17.3701
16.6015
15.8362
15.0845
14.3559
13.6586
12.9995
12.3839
11.8153
11.2954
10.8249
10.4027
10.027
9.69532
9.40449
9.15117
8.93193
8.74344
8.58254
8.44636
8.33237
8.2384
8.16264
8.1036
8.06013
8.0313
8.01503
8.00917
8.01125
8.01853
8.02831
8.03849
8.04855
8.06075
8.0809
8.11757
8.17777
8.25776
8.33025
8.33549
8.18866
7.80928
7.16139
6.28
5.26501
4.24452
3.32908
2.58216
2.01721
1.61362
1.33669
1.1517
1.03032
0.95178
0.901635
0.870122
0.850703
0.839014
0.832151
0.828187
0.825851
0.824334
0.823135
0.821963
0.820663
0.819174
0.817485
0.815624
0.813631
0.811556
0.809447
0.807349
0.805302
0.80334
0.801494
0.79979
0.798253
0.796908
0.795783
0.794914
0.794338
0.794094
0.79422
0.794692
0.795475
89.0019
53.0015
44.095
40.6609
38.9082
37.7226
36.6785
35.6024
34.4393
33.1985
31.9245
30.6754
29.5081
28.4679
27.5833
26.8662
26.3143
25.9156
25.6523
25.5042
25.4508
25.4727
25.5524
25.6748
25.8267
25.9974
26.1778
26.3607
26.5405
26.7126
26.8735
27.0207
27.1525
27.2677
27.3654
27.4455
27.5078
27.5527
27.5805
27.5919
27.5874
27.5679
27.5341
27.4868
27.4269
27.3553
27.2729
27.1805
27.079
26.9694
26.8526
26.7295
26.6012
26.4679
26.33
26.188
26.0428
25.895
25.7454
25.5948
25.4441
25.294
25.1455
24.9992
24.8559
24.7162
24.5808
24.4501
24.3243
24.2036
24.0877
23.9763
23.8685
23.7634
23.6595
23.555
23.4478
23.3352
23.2144
23.0819
22.9341
22.7667
22.5748
22.3534
22.0965
21.799
21.4599
21.0754
20.6422
20.158
19.6223
19.0363
18.4036
17.7298
17.0229
16.2922
15.5486
14.8034
14.0681
13.3533
12.6688
12.0226
11.4208
10.8679
10.3661
9.91617
9.51733
9.16761
8.86417
8.6036
8.38217
8.19606
8.04151
7.915
7.81332
7.73364
7.67353
7.63094
7.60424
7.59213
7.59362
7.60651
7.62846
7.65687
7.68892
7.72178
7.75308
7.78173
7.8089
7.83883
7.87847
7.93444
8.00577
8.07268
8.08686
7.97375
7.65526
7.08674
6.2866
5.33779
4.35809
3.45714
2.70464
2.12289
1.69884
1.40248
1.20113
1.06685
0.978458
0.92092
0.883891
0.860359
0.845593
0.836414
0.830692
0.827007
0.824438
0.822407
0.820567
0.818723
0.816784
0.814722
0.812545
0.810287
0.807985
0.805684
0.803422
0.801235
0.799153
0.797202
0.795406
0.793784
0.792356
0.791146
0.790181
0.789488
0.789094
0.789023
0.789242
0.789723
86.9673
51.7008
42.8543
39.4331
37.7132
36.5835
35.6125
34.6198
33.5445
32.3914
31.2017
30.0314
28.9364
27.9612
27.1343
26.4672
25.958
25.5951
25.3614
25.2373
25.2034
25.2413
25.3346
25.4688
25.6316
25.8128
26.004
26.198
26.3895
26.5739
26.7479
26.9087
27.0545
27.1838
27.2957
27.3897
27.4654
27.5228
27.562
27.5834
27.5873
27.5741
27.5445
27.4989
27.438
27.3625
27.273
27.1702
27.0548
26.9276
26.7893
26.6409
26.4832
26.3167
26.1419
25.9594
25.77
25.5746
25.3741
25.1694
24.9618
24.7522
24.5418
24.3317
24.1232
23.9173
23.7151
23.5178
23.3261
23.1409
22.9627
22.7918
22.6283
22.472
22.3222
22.1779
22.0377
21.8998
21.7619
21.621
21.474
21.3167
21.1443
20.9515
20.7332
20.4847
20.2003
19.8743
19.5011
19.0764
18.5975
18.0638
17.4772
16.8423
16.1664
15.4591
14.7319
13.9972
13.2679
12.5563
11.8736
11.2294
10.631
10.0838
9.59076
9.15278
8.76915
8.43774
8.15539
7.91828
7.72224
7.56297
7.43629
7.33828
7.26535
7.21437
7.18265
7.16793
7.16838
7.18258
7.20945
7.24665
7.2917
7.3419
7.39436
7.44618
7.49486
7.53894
7.57888
7.61779
7.66132
7.71534
7.78017
7.84089
7.85764
7.76506
7.48981
6.98343
6.25271
5.36625
4.43103
3.55293
2.80454
2.21455
1.77645
1.46488
1.24967
1.10383
1.00623
0.941532
0.898988
0.871221
0.853198
0.841501
0.833823
0.828603
0.824816
0.821809
0.819178
0.816687
0.814215
0.811711
0.809167
0.806603
0.804046
0.801532
0.799092
0.796757
0.79455
0.792494
0.790606
0.788901
0.787394
0.786104
0.785049
0.784248
0.783717
0.783471
0.783474
0.783701
84.0498
49.9409
41.2815
37.9343
36.2913
35.2613
34.412
33.5565
32.625
31.6135
30.555
29.5
28.5011
27.6025
26.8339
26.2097
25.731
25.3893
25.1699
25.0557
25.0287
25.0719
25.1698
25.3086
25.4767
25.664
25.8624
26.0649
26.2661
26.4613
26.6472
26.8208
26.98
27.1233
27.2493
27.3574
27.4469
27.5176
27.5693
27.602
27.6158
27.6111
27.5879
27.5468
27.488
27.4119
27.3192
27.2101
27.0854
26.9454
26.791
26.6228
26.4415
26.2478
26.0423
25.8256
25.5987
25.3624
25.1179
24.8664
24.6091
24.3474
24.0826
23.8163
23.5501
23.2854
23.024
22.7673
22.5169
22.2742
22.0403
21.8163
21.6031
21.4012
21.2107
21.0314
20.8625
20.703
20.5511
20.4045
20.2603
20.115
19.9634
19.802
19.6243
19.4237
19.193
18.9243
18.6101
18.2437
17.8199
17.3358
16.7917
16.1907
15.5398
14.8485
14.1292
13.3955
12.6622
11.9434
11.2522
10.6001
9.99581
9.44562
8.95317
8.51973
8.14449
7.82503
7.5578
7.33845
7.16228
7.02449
6.92041
6.84569
6.79642
6.76914
6.76091
6.76926
6.79219
6.82812
6.87583
6.93289
6.99668
7.06443
7.13322
7.20012
7.26257
7.31892
7.36918
7.41567
7.46297
7.51617
7.57601
7.63053
7.64599
7.56484
7.31935
6.8606
6.1879
5.3584
4.46865
3.61903
2.88242
2.29167
1.8455
1.52293
1.29657
1.14074
1.03478
0.963302
0.915357
0.883315
0.861913
0.84754
0.837735
0.830812
0.825654
0.821534
0.817994
0.814758
0.811672
0.808661
0.8057
0.802791
0.799951
0.797204
0.794574
0.792083
0.789749
0.787587
0.785609
0.783825
0.782244
0.78088
0.779742
0.778844
0.778193
0.777794
0.777614
0.77763
80.2869
47.8078
39.481
36.2757
34.752
33.8567
33.1639
32.4816
31.7305
30.8951
29.998
29.0817
28.1944
27.3792
26.6684
26.0806
25.622
25.2886
25.0702
24.9527
24.9205
24.9582
25.0514
25.187
25.3537
25.5418
25.743
25.9504
26.1583
26.3621
26.558
26.7429
26.9145
27.0709
27.2106
27.3325
27.4358
27.52
27.5846
27.6294
27.6542
27.6591
27.6441
27.6092
27.5547
27.4807
27.3875
27.2754
27.1447
26.9958
26.8293
26.6456
26.4453
26.2293
25.998
25.7524
25.4934
25.2221
24.9397
24.6475
24.347
24.0397
23.7273
23.4117
23.0948
22.7785
22.4649
22.1561
21.8541
21.5608
21.2781
21.0077
20.7512
20.5098
20.2845
20.0755
19.8828
19.706
19.5442
19.3952
19.2566
19.1261
18.9988
18.8699
18.7326
18.5796
18.402
18.1901
17.9343
17.6251
17.2548
16.8181
16.3129
15.7412
15.1091
14.4265
13.7065
12.9646
12.2175
11.4817
10.7726
10.1037
9.4852
8.92468
8.42636
7.99167
7.61962
7.30737
7.05078
6.84488
6.68436
6.56383
6.47816
6.42256
6.39277
6.38505
6.39622
6.42362
6.46506
6.51884
6.58366
6.65694
6.73591
6.81769
6.89937
6.97803
7.05113
7.11696
7.17524
7.22775
7.27824
7.33099
7.38667
7.43505
7.44678
7.37078
7.14517
6.72276
6.09855
5.32078
4.47637
3.6592
2.94044
2.3552
1.90628
1.57665
1.34173
1.17753
1.06409
0.986271
0.933079
0.896753
0.871871
0.854675
0.842578
0.83379
0.827109
0.821741
0.817176
0.813097
0.809318
0.805737
0.802309
0.799019
0.79587
0.792873
0.790042
0.78739
0.784927
0.782661
0.780598
0.778742
0.777095
0.775666
0.774458
0.773476
0.772722
0.772196
0.771866
0.771711
76.3537
45.7394
37.8216
34.7913
33.401
32.6449
32.1081
31.5966
31.0226
30.36
29.6209
28.8394
28.0586
27.3203
26.6589
26.0973
25.6469
25.3092
25.0787
24.9449
24.8952
24.916
24.994
25.1171
25.2741
25.4555
25.6529
25.8593
26.0688
26.2765
26.4783
26.6709
26.8516
27.0182
27.1689
27.3024
27.4175
27.5136
27.5898
27.6458
27.6812
27.6956
27.689
27.6612
27.6121
27.5418
27.4504
27.3378
27.2043
27.0502
26.8757
26.6811
26.467
26.2341
25.983
25.7147
25.4302
25.1307
24.8175
24.492
24.1558
23.8108
23.4588
23.1018
22.7423
22.3824
22.0247
21.6716
21.3257
20.9895
20.6654
20.3556
20.0623
19.7877
19.5334
19.3002
19.0885
18.8984
18.7304
18.5826
18.4529
18.3386
18.2357
18.1388
18.0414
17.9349
17.8094
17.6533
17.4546
17.2011
16.8821
16.4897
16.0194
15.4717
14.8519
14.1702
13.4411
12.6818
11.9118
11.1502
10.4151
9.72208
9.08336
8.50743
7.99906
7.55961
7.18771
6.87986
6.63114
6.43585
6.28798
6.18155
6.11093
6.07097
6.05709
6.0653
6.09223
6.13504
6.19141
6.25948
6.33789
6.42385
6.51446
6.60684
6.69804
6.78525
6.86599
6.93857
7.0026
7.05949
7.11238
7.16481
7.21706
7.25971
7.26633
7.19084
6.97685
6.58019
5.99417
5.26079
4.45875
3.67522
2.97832
2.4037
1.95693
1.62419
1.38362
1.21296
1.09326
1.00979
0.951716
0.911255
0.882915
0.862843
0.848358
0.837594
0.829276
0.822555
0.816871
0.811868
0.807329
0.803125
0.799189
0.795487
0.792007
0.788745
0.785704
0.782886
0.780294
0.777925
0.77578
0.773856
0.772152
0.770665
0.769396
0.768342
0.767501
0.766868
0.766413
0.766118
72.5436
43.9531
36.4552
33.6077
32.3477
31.7181
31.3183
30.9545
30.5335
30.021
29.4201
28.7572
28.0701
27.3987
26.7782
26.2348
25.7845
25.434
25.1823
25.023
24.9463
24.9409
24.9949
25.097
25.2365
25.4039
25.5909
25.7902
25.9957
26.2021
26.405
26.6008
26.7866
26.9595
27.1176
27.2593
27.3832
27.4884
27.5738
27.6389
27.6829
27.7055
27.7063
27.6849
27.6412
27.5749
27.486
27.3745
27.2402
27.0834
26.9041
26.7027
26.4795
26.2349