/*--------------------------------*- C++ -*----------------------------------*\
  =========                 |
  \\      /  F ield         | OpenFOAM: The Open Source CFD Toolbox
   \\    /   O peration     | Website:  https://openfoam.org
    \\  /    A nd           | Version:  9
     \\/     M anipulation  |
\*---------------------------------------------------------------------------*/
FoamFile
{
    format      ascii;
    class       volScalarField;
    location    "0.09";
    object      k;
}
// * * * * * * * * * * * * * * * * * * * * * * * * * * * * * * * * * * * * * //

dimensions      [0 2 -2 0 0 0 0];

internalField   nonuniform List<scalar> 
12225
(
0.266767
0.160778
0.104234
0.0745143
0.0584592
0.0490985
0.0429711
0.0384609
0.0348444
0.0317899
0.0291276
0.0267584
0.024621
0.0226841
0.0209551
0.0195562
0.0192938
0.0321012
0.335853
0.250779
0.197029
0.164997
0.144765
0.13078
0.120224
0.111681
0.104432
0.0980838
0.092394
0.0871949
0.082371
0.0778569
0.0736643
0.0700881
0.0690694
0.0818841
0.345536
0.28616
0.239854
0.207007
0.1836
0.166321
0.152952
0.142125
0.133036
0.125206
0.118336
0.112226
0.106749
0.101842
0.0975497
0.0942948
0.09422
0.106469
0.350289
0.305119
0.265624
0.234401
0.210236
0.19138
0.176325
0.163967
0.153565
0.144639
0.136871
0.130056
0.124067
0.118862
0.114535
0.111598
0.11209
0.122793
0.353262
0.316685
0.282671
0.253863
0.230222
0.210924
0.195032
0.181742
0.170447
0.16072
0.152263
0.144881
0.138461
0.132983
0.128579
0.125784
0.126351
0.135087
0.355264
0.324289
0.294581
0.268266
0.245737
0.226677
0.210545
0.19679
0.184954
0.174685
0.165726
0.157906
0.151131
0.145401
0.140866
0.138027
0.138295
0.144999
0.35666
0.329524
0.303181
0.279171
0.257977
0.23954
0.223567
0.209703
0.197614
0.187029
0.177741
0.169608
0.162559
0.156606
0.151901
0.148878
0.148623
0.153409
0.35765
0.333224
0.309511
0.287529
0.267704
0.250086
0.234531
0.220813
0.208701
0.197995
0.188534
0.180209
0.172968
0.166833
0.161942
0.158655
0.157777
0.160848
0.358353
0.335871
0.314209
0.293964
0.275444
0.258726
0.24374
0.230346
0.218389
0.207721
0.198226
0.189821
0.182473
0.176207
0.171143
0.167565
0.166054
0.167653
0.35885
0.337767
0.317697
0.298909
0.281582
0.265768
0.25143
0.238478
0.226804
0.216304
0.206892
0.198511
0.191138
0.184801
0.179599
0.175746
0.173658
0.174036
0.359198
0.339116
0.320268
0.302682
0.286409
0.27146
0.257796
0.245354
0.234053
0.223819
0.214589
0.206321
0.199004
0.192662
0.187372
0.183294
0.180718
0.180119
0.359419
0.339987
0.321986
0.305289
0.289849
0.275627
0.262573
0.250626
0.239719
0.229794
0.220801
0.212709
0.20551
0.199224
0.193911
0.189689
0.186764
0.185472
0.359577
0.340619
0.32327
0.307299
0.292576
0.279015
0.266544
0.255096
0.244612
0.23504
0.226338
0.218481
0.211463
0.205297
0.200028
0.195738
0.192571
0.190758
0.359698
0.341113
0.324309
0.308979
0.294928
0.282019
0.270154
0.259254
0.249254
0.240105
0.23177
0.224223
0.217457
0.211479
0.206317
0.202024
0.198691
0.196469
0.359783
0.341468
0.325082
0.31028
0.296816
0.284512
0.27324
0.262904
0.253429
0.24476
0.236856
0.229692
0.223253
0.217538
0.212559
0.208344
0.204946
0.202456
0.359837
0.341699
0.325606
0.311199
0.298204
0.286418
0.275684
0.265887
0.256939
0.248773
0.241342
0.234612
0.228561
0.223177
0.218457
0.214408
0.211054
0.208445
0.359866
0.341831
0.32592
0.311778
0.299123
0.287734
0.27744
0.268109
0.259637
0.251948
0.244982
0.238695
0.233054
0.228036
0.223623
0.219807
0.21659
0.213995
0.359875
0.341889
0.326074
0.312084
0.299638
0.288511
0.278523
0.269534
0.26143
0.254123
0.247544
0.241638
0.236361
0.231677
0.227559
0.223985
0.220943
0.218435
0.359869
0.341883
0.326088
0.312141
0.299765
0.288737
0.278879
0.270046
0.262123
0.255017
0.248651
0.242963
0.237903
0.233424
0.229492
0.226075
0.223151
0.22071
0.359839
0.34178
0.325878
0.311796
0.299264
0.288072
0.278053
0.269073
0.261021
0.253807
0.247357
0.241605
0.236495
0.23198
0.228017
0.224569
0.221609
0.219121
0.359777
0.341539
0.325366
0.310937
0.298016
0.286419
0.276004
0.266653
0.258265
0.250754
0.244046
0.238073
0.232775
0.228099
0.223997
0.220426
0.217355
0.214762
0.359646
0.341018
0.324274
0.309165
0.295523
0.283224
0.272159
0.262227
0.253335
0.245395
0.238326
0.232053
0.226506
0.221624
0.217349
0.213632
0.210434
0.207731
0.359392
0.340004
0.322222
0.305968
0.291212
0.277908
0.265973
0.255314
0.245828
0.237413
0.229968
0.223401
0.217628
0.212571
0.20816
0.204338
0.201055
0.198282
0.358933
0.338188
0.31871
0.300748
0.284456
0.269867
0.256926
0.245499
0.23544
0.226608
0.218872
0.212109
0.20621
0.20108
0.196633
0.192797
0.189515
0.186752
0.358157
0.335125
0.313061
0.292752
0.274554
0.258521
0.244538
0.232424
0.221947
0.21288
0.205039
0.198263
0.192413
0.187369
0.183032
0.179315
0.176151
0.173501
0.356911
0.330125
0.304279
0.280937
0.260572
0.243125
0.228302
0.215751
0.205143
0.196148
0.18849
0.181962
0.176391
0.171638
0.167587
0.164142
0.16123
0.158805
0.35497
0.321945
0.290678
0.26365
0.24112
0.222608
0.207442
0.194984
0.184705
0.176205
0.169103
0.163141
0.158118
0.153881
0.150305
0.147293
0.144768
0.142683
0.351976
0.307958
0.268989
0.237932
0.213815
0.195134
0.180544
0.168997
0.159738
0.152242
0.146145
0.141106
0.136921
0.133436
0.130532
0.128117
0.126119
0.124492
0.345947
0.280837
0.231811
0.197557
0.173548
0.156357
0.143711
0.134143
0.126727
0.120879
0.116246
0.112509
0.109479
0.107016
0.105015
0.103397
0.102101
0.101087
0.300297
0.21445
0.158243
0.121294
0.0969161
0.0807214
0.0697909
0.0622066
0.0567653
0.0527372
0.0496937
0.0474132
0.0456636
0.0442986
0.0432256
0.0423822
0.0417237
0.0412181
0.0372127
0.0675762
0.0834558
0.0950771
0.10386
0.110673
0.116145
0.120784
0.12506
0.129433
0.133497
0.136162
0.134773
0.138656
0.137329
0.142802
0.14528
0.142119
0.143018
0.145467
0.143371
0.147146
0.146039
0.136604
0.143913
0.148956
0.15014
0.161468
0.173628
0.185785
0.197701
0.209237
0.220308
0.230868
0.240897
0.250393
0.259368
0.267839
0.275831
0.283371
0.290485
0.297202
0.303549
0.309553
0.315239
0.320633
0.325763
0.330657
0.335345
0.339867
0.344264
0.348591
0.352905
0.356995
0.360873
0.364552
0.368037
0.371326
0.374413
0.377293
0.379956
0.382392
0.384588
0.386532
0.388208
0.389602
0.390697
0.391476
0.39192
0.392011
0.391731
0.391061
0.389982
0.388477
0.386529
0.384123
0.381245
0.377883
0.374029
0.369678
0.364826
0.359476
0.353633
0.347308
0.340518
0.333289
0.325671
0.317779
0.310141
0.304556
0.300842
0.297299
0.293634
0.289789
0.285764
0.281579
0.277263
0.272845
0.268356
0.263824
0.259276
0.254735
0.250221
0.245749
0.241331
0.236973
0.23268
0.22845
0.224279
0.220157
0.216074
0.212012
0.207953
0.203873
0.199739
0.195514
0.191133
0.186481
0.181594
0.176471
0.17103
0.167629
0.16648
0.164685
0.162703
0.160912
0.159606
0.158887
0.158441
0.157289
0.153728
0.145738
0.131897
0.112443
0.0897581
0.0676309
0.049432
0.0365748
0.0285274
0.0239135
0.021439
0.0202045
0.0196637
0.0195035
0.0195472
0.0196948
0.0198884
0.0200941
0.0202919
0.0204706
0.0206255
0.0207579
0.0208723
0.0209544
0.0209998
0.0210108
0.0209916
0.0209471
0.0208816
0.0207996
0.0207048
0.0206004
0.0204893
0.0203734
0.0202547
0.0201345
0.0200138
0.0198934
0.0197738
0.0196549
0.0195366
0.019422
0.0193119
0.0192028
0.0190923
0.0189777
0.0188556
0.0187211
0.0185555
0.0183404
0.0557256
0.0942966
0.116848
0.131237
0.141022
0.148303
0.154453
0.160473
0.167224
0.174788
0.183233
0.192604
0.203364
0.21466
0.228629
0.243184
0.258942
0.274917
0.288726
0.300109
0.306515
0.315063
0.318698
0.320245
0.32169
0.327145
0.330361
0.334319
0.339139
0.344775
0.351171
0.358263
0.365979
0.374228
0.382911
0.391926
0.401176
0.410576
0.420054
0.429552
0.439027
0.448451
0.457802
0.46707
0.476249
0.485338
0.494338
0.503252
0.512084
0.520838
0.529521
0.538142
0.546547
0.554904
0.563237
0.571542
0.579811
0.58803
0.596183
0.604248
0.612204
0.620023
0.627675
0.635128
0.642343
0.649282
0.655901
0.662153
0.667991
0.673362
0.678213
0.682489
0.686134
0.689092
0.691308
0.692727
0.693297
0.69297
0.691702
0.689453
0.68619
0.681889
0.676532
0.670109
0.662623
0.654088
0.64453
0.633997
0.622551
0.610346
0.598298
0.585967
0.573261
0.560196
0.54683
0.533236
0.519494
0.505683
0.491876
0.478144
0.464546
0.451136
0.437954
0.425037
0.412407
0.400081
0.388067
0.376363
0.364965
0.353858
0.343026
0.332447
0.322096
0.311944
0.301958
0.292103
0.282332
0.27255
0.26245
0.252222
0.241807
0.230084
0.220487
0.213044
0.207877
0.204819
0.203636
0.203938
0.204891
0.205032
0.202329
0.194618
0.180423
0.159849
0.134973
0.109272
0.0862077
0.067912
0.0548232
0.0462107
0.0409197
0.0378673
0.0362315
0.0354556
0.0351871
0.0352101
0.0353938
0.0356576
0.0359511
0.0362424
0.0365118
0.0367482
0.0369475
0.0371075
0.0372228
0.0372942
0.0373257
0.0373221
0.0372891
0.0372318
0.0371552
0.0370638
0.0369614
0.0368513
0.036736
0.0366177
0.036498
0.0363782
0.0362592
0.0361413
0.0360242
0.0359055
0.0357909
0.035678
0.0355642
0.035447
0.0353228
0.0351915
0.0350294
0.0348813
0.085491
0.130611
0.157568
0.174814
0.186807
0.196177
0.204733
0.21394
0.224517
0.2366
0.250746
0.267479
0.286248
0.306226
0.326789
0.346421
0.36378
0.377643
0.38734
0.392779
0.3945
0.393997
0.392528
0.39154
0.392266
0.395153
0.399917
0.406528
0.414865
0.424659
0.435571
0.447269
0.459443
0.471825
0.484189
0.496368
0.508241
0.519739
0.530832
0.541524
0.551838
0.561814
0.571499
0.580944
0.590197
0.599306
0.608309
0.617245
0.626141
0.635023
0.643911
0.652818
0.66174
0.670709
0.679733
0.688804
0.697911
0.707037
0.716164
0.725268
0.734321
0.743292
0.752143
0.760835
0.769322
0.777555
0.785479
0.793037
0.800167
0.806803
0.812877
0.818317
0.823052
0.827007
0.83011
0.832288
0.833473
0.833598
0.832604
0.830437
0.827049
0.822403
0.816473
0.809241
0.800704
0.79087
0.77976
0.767398
0.753802
0.739034
0.723994
0.708507
0.692547
0.676161
0.659432
0.642457
0.625342
0.608185
0.591085
0.574128
0.55739
0.540938
0.524824
0.50909
0.493763
0.478861
0.464392
0.450353
0.436734
0.423518
0.410682
0.3982
0.386042
0.374175
0.362564
0.351171
0.339954
0.328854
0.31776
0.306496
0.294975
0.282887
0.270609
0.258715
0.247814
0.238509
0.231397
0.226847
0.224646
0.223667
0.221798
0.216395
0.205211
0.187428
0.164203
0.138319
0.1131
0.0912418
0.074164
0.0619994
0.0540085
0.049119
0.046325
0.0448581
0.0441974
0.0440131
0.0441024
0.0443408
0.0446497
0.0449793
0.0452972
0.0455835
0.0458268
0.0460249
0.0461721
0.0462683
0.046317
0.0463232
0.046293
0.0462325
0.0461475
0.0460437
0.0459256
0.0457976
0.045663
0.0455246
0.0453846
0.0452448
0.0451064
0.0449701
0.0448362
0.0447037
0.0445738
0.0444475
0.044323
0.0441993
0.0440748
0.0439524
0.0438218
0.0437229
0.118484
0.172049
0.204073
0.224698
0.239455
0.251517
0.263043
0.27538
0.288621
0.303607
0.320688
0.339676
0.359765
0.379714
0.398061
0.413384
0.424651
0.431499
0.434341
0.434207
0.432576
0.431083
0.431084
0.433426
0.438486
0.446172
0.456073
0.467711
0.480632
0.494393
0.508584
0.522859
0.536941
0.550624
0.563771
0.576304
0.588194
0.599453
0.61012
0.620255
0.629927
0.639212
0.648182
0.656909
0.665457
0.673884
0.68224
0.690568
0.6989
0.707264
0.715679
0.724154
0.732714
0.74137
0.750126
0.758977
0.767911
0.776915
0.785969
0.795048
0.804126
0.813167
0.822135
0.830985
0.83967
0.848135
0.856322
0.864167
0.871602
0.878554
0.884946
0.8907
0.895733
0.899962
0.903305
0.905679
0.907005
0.907206
0.906213
0.903961
0.900396
0.895472
0.889154
0.881419
0.872257
0.861668
0.849662
0.836248
0.821423
0.805299
0.788667
0.771473
0.753744
0.735554
0.717007
0.698218
0.679308
0.660393
0.641583
0.622979
0.604667
0.586722
0.569204
0.552156
0.535611
0.519584
0.504083
0.4891
0.474623
0.460629
0.447092
0.43398
0.421259
0.408892
0.396843
0.385072
0.373534
0.362174
0.350913
0.339602
0.328124
0.316319
0.304134
0.291715
0.279365
0.267554
0.256946
0.24827
0.24201
0.237935
0.234727
0.230071
0.22139
0.206958
0.186739
0.162449
0.13686
0.112829
0.0925143
0.0769584
0.0660799
0.0590538
0.0548183
0.0524328
0.0512071
0.050685
0.0505804
0.0507157
0.0509794
0.0512995
0.0516292
0.0519382
0.0522074
0.0524309
0.0526009
0.0527158
0.052778
0.0527923
0.0527647
0.0527018
0.0526102
0.0524961
0.052365
0.0522218
0.0520707
0.051915
0.0517575
0.0516003
0.051445
0.0512928
0.0511441
0.0509991
0.0508578
0.0507217
0.0505903
0.0504635
0.0503418
0.0502294
0.0501236
0.050053
0.154002
0.217407
0.254845
0.279337
0.29717
0.31181
0.325341
0.338107
0.351423
0.365964
0.381782
0.398337
0.414624
0.429405
0.441512
0.450168
0.45522
0.457213
0.457265
0.456781
0.457142
0.459454
0.464362
0.472026
0.482234
0.494538
0.508387
0.523244
0.538639
0.554175
0.56953
0.584458
0.598784
0.612396
0.625235
0.637291
0.648585
0.659168
0.669105
0.678474
0.687356
0.695835
0.703988
0.711889
0.719605
0.727196
0.734714
0.742201
0.749693
0.757218
0.764798
0.772445
0.780192
0.788051
0.796027
0.804117
0.812314
0.820606
0.828977
0.837403
0.845859
0.854313
0.862727
0.87106
0.879262
0.887279
0.895053
0.902519
0.909606
0.916239
0.92234
0.927826
0.932611
0.936607
0.939728
0.941884
0.942993
0.942971
0.941744
0.93924
0.9354
0.930172
0.923515
0.915401
0.905811
0.894741
0.882191
0.868161
0.852646
0.835851
0.818418
0.800351
0.78171
0.762591
0.743113
0.723405
0.703598
0.683822
0.664196
0.644831
0.625822
0.60725
0.589179
0.571658
0.554716
0.538371
0.522627
0.507473
0.492892
0.478857
0.465336
0.452293
0.43969
0.427486
0.415641
0.404112
0.392853
0.38181
0.37091
0.36003
0.349045
0.337835
0.326292
0.314387
0.302194
0.28993
0.278027
0.26713
0.257932
0.250815
0.245353
0.240042
0.232596
0.220854
0.203781
0.181957
0.157321
0.132485
0.109966
0.0915396
0.0778631
0.068561
0.0626837
0.0591995
0.0572689
0.0563058
0.0559309
0.0559062
0.056081
0.0563584
0.0566743
0.0569869
0.0572685
0.0575072
0.057693
0.0578219
0.0578948
0.0579157
0.0578906
0.0578261
0.0577292
0.0576066
0.0574646
0.0573087
0.0571435
0.056973
0.0568005
0.0566283
0.0564586
0.0562926
0.0561315
0.0559755
0.055825
0.0556812
0.0555446
0.0554158
0.0552963
0.0551907
0.0550991
0.0550413
0.190476
0.262657
0.30638
0.335387
0.356434
0.372762
0.385583
0.39686
0.407816
0.419037
0.43052
0.441773
0.452016
0.460458
0.466576
0.470328
0.472215
0.473179
0.474371
0.476872
0.481485
0.488625
0.498326
0.510318
0.524153
0.539313
0.555288
0.571628
0.58796
0.603986
0.619484
0.634292
0.648308
0.661477
0.673783
0.685245
0.695904
0.70582
0.715065
0.723715
0.731852
0.739555
0.7469
0.753959
0.760798
0.767474
0.774041
0.780543
0.787019
0.793499
0.800007
0.806562
0.813199
0.819934
0.826773
0.833721
0.840773
0.847921
0.855154
0.862453
0.869795
0.877153
0.884494
0.891777
0.898959
0.905988
0.91281
0.91936
0.925572
0.931373
0.936686
0.941428
0.945515
0.948859
0.951373
0.952968
0.953557
0.953057
0.95139
0.948482
0.944269
0.938695
0.931714
0.923293
0.913407
0.902044
0.889197
0.874862
0.85903
0.842025
0.824312
0.805926
0.786948
0.767488
0.747676
0.727651
0.707555
0.687523
0.667687
0.648163
0.629054
0.610446
0.592407
0.574986
0.558215
0.542109
0.526669
0.511881
0.497721
0.484159
0.471157
0.458672
0.446661
0.43508
0.423882
0.413024
0.402455
0.39212
0.381949
0.371833
0.361643
0.351276
0.340619
0.329582
0.318122
0.306289
0.294302
0.282603
0.271812
0.262525
0.254909
0.248273
0.240968
0.230908
0.21648
0.197295
0.174373
0.149802
0.126107
0.105528
0.0893851
0.0778511
0.0702396
0.0655327
0.0627875
0.0612972
0.0605868
0.0603522
0.0603995
0.0606036
0.0608817
0.0611789
0.061459
0.0617017
0.0618949
0.0620316
0.0621109
0.0621358
0.0621115
0.0620448
0.0619428
0.0618125
0.0616607
0.0614934
0.0613158
0.0611323
0.0609465
0.0607613
0.060579
0.0604012
0.0602293
0.0600639
0.0599055
0.0597555
0.0596145
0.0594839
0.0593655
0.0592634
0.0591784
0.0591246
0.224825
0.305746
0.355742
0.389145
0.412211
0.428026
0.439356
0.448044
0.455312
0.461851
0.467877
0.473257
0.4777
0.480995
0.483198
0.484719
0.486265
0.488677
0.492731
0.498968
0.507623
0.518635
0.531716
0.546444
0.562346
0.578957
0.595865
0.61272
0.629244
0.645221
0.660495
0.67496
0.688554
0.70125
0.713052
0.723986
0.734097
0.743444
0.752093
0.760117
0.767588
0.774581
0.781166
0.78741
0.793375
0.79912
0.804695
0.810146
0.815514
0.820832
0.826129
0.831427
0.836763
0.842155
0.847615
0.853152
0.858767
0.864457
0.870216
0.876031
0.881885
0.887755
0.893616
0.899433
0.905169
0.910778
0.916212
0.921413
0.926321
0.930868
0.934982
0.938586
0.941601
0.943942
0.945526
0.946266
0.946078
0.94488
0.942593
0.939143
0.934464
0.928498
0.921194
0.912514
0.902426
0.890911
0.877955
0.863552
0.847687
0.830809
0.813184
0.794869
0.775958
0.756572
0.736848
0.716931
0.69697
0.67711
0.657487
0.638225
0.619434
0.601204
0.583607
0.566693
0.550495
0.535024
0.520279
0.50624
0.492881
0.480161
0.468038
0.456463
0.445386
0.434757
0.424526
0.414642
0.405053
0.395701
0.386516
0.377398
0.368216
0.358873
0.34926
0.339259
0.328774
0.317761
0.306295
0.294636
0.283252
0.272731
0.263516
0.255501
0.247717
0.238464
0.225958
0.209147
0.188215
0.1646
0.140582
0.118599
0.100469
0.0869068
0.0775823
0.0715948
0.0679599
0.0658746
0.0647733
0.0642843
0.064168
0.0642692
0.0644851
0.0647471
0.0650093
0.0652436
0.0654341
0.0655708
0.0656505
0.0656749
0.0656485
0.0655776
0.0654694
0.0653311
0.0651697
0.0649917
0.0648026
0.0646073
0.0644096
0.0642128
0.0640193
0.0638312
0.0636499
0.0634764
0.0633113
0.0631559
0.0630111
0.0628785
0.0627599
0.0626588
0.0625754
0.0625207
0.255343
0.343745
0.3991
0.435033
0.458699
0.474149
0.483957
0.489946
0.493456
0.495431
0.496474
0.496936
0.497059
0.497115
0.497508
0.49877
0.501487
0.506168
0.513142
0.522501
0.534115
0.547682
0.562803
0.57904
0.595968
0.613202
0.630412
0.647329
0.663741
0.679486
0.69445
0.708557
0.721765
0.73406
0.74545
0.755963
0.765639
0.77453
0.782695
0.790195
0.797098
0.803467
0.809366
0.814858
0.819999
0.824845
0.829446
0.833846
0.838087
0.842205
0.846231
0.850192
0.854126
0.858053
0.86199
0.86595
0.869941
0.873965
0.878021
0.882104
0.886204
0.890306
0.89439
0.898431
0.9024
0.906261
0.909972
0.913486
0.916752
0.919711
0.922299
0.924448
0.926087
0.927139
0.927526
0.927169
0.925989
0.923906
0.920845
0.916735
0.911508
0.905104
0.897471
0.888562
0.878343
0.866784
0.853865
0.839574
0.82392
0.807415
0.790144
0.77218
0.753626
0.734608
0.715267
0.695753
0.676221
0.656821
0.637698
0.618981
0.600788
0.583212
0.56633
0.550195
0.534837
0.520269
0.506482
0.493455
0.481152
0.469528
0.458531
0.448106
0.438197
0.428745
0.419694
0.410989
0.402573
0.394385
0.386353
0.378382
0.370343
0.362142
0.353666
0.344791
0.335392
0.325374
0.314723
0.303568
0.292231
0.281208
0.27102
0.261902
0.25343
0.244393
0.233126
0.218225
0.199227
0.176921
0.153202
0.130485
0.1109
0.0956212
0.0847068
0.07745
0.0728903
0.0701639
0.0686277
0.0678458
0.0675329
0.0675029
0.0676323
0.0678382
0.068065
0.0682767
0.0684526
0.0685796
0.0686521
0.0686701
0.0686371
0.0685589
0.0684423
0.0682947
0.0681231
0.0679343
0.0677341
0.0675276
0.0673189
0.0671115
0.0669081
0.0667109
0.0665213
0.0663407
0.0661698
0.0660097
0.0658614
0.0657266
0.0656069
0.0655047
0.06542
0.0653617
0.280573
0.373568
0.431476
0.469261
0.493997
0.509502
0.518286
0.522222
0.522821
0.521323
0.518738
0.515877
0.51341
0.511924
0.51195
0.513948
0.518257
0.525051
0.534314
0.545857
0.559362
0.574437
0.590665
0.607643
0.625002
0.642423
0.659638
0.676432
0.692634
0.708118
0.722793
0.7366
0.749505
0.761497
0.772584
0.782789
0.792145
0.800695
0.808487
0.815575
0.822015
0.827862
0.833173
0.838003
0.842404
0.846425
0.850115
0.853517
0.856672
0.859616
0.862383
0.865003
0.867512
0.869936
0.872296
0.874606
0.876881
0.87913
0.881357
0.883564
0.885748
0.887904
0.89002
0.892081
0.894067
0.895952
0.897706
0.899294
0.900674
0.9018
0.90262
0.903077
0.90311
0.902653
0.901639
0.899997
0.897655
0.894542
0.890586
0.885721
0.87988
0.873004
0.865037
0.855929
0.845636
0.834121
0.821352
0.807297
0.792117
0.776142
0.759409
0.741993
0.723998
0.705548
0.686786
0.667867
0.648947
0.630184
0.61173
0.593723
0.576287
0.559523
0.543511
0.528307
0.513943
0.500429
0.487754
0.475889
0.464793
0.454412
0.444688
0.435555
0.426948
0.418803
0.411056
0.403646
0.396509
0.389583
0.382792
0.376045
0.369217
0.362211
0.354915
0.347198
0.338923
0.329968
0.320263
0.309851
0.298939
0.287916
0.277284
0.267438
0.258328
0.249193
0.238638
0.225159
0.207857
0.186966
0.163938
0.141024
0.120494
0.103865
0.0915609
0.0831099
0.0776321
0.0742428
0.0722415
0.0711359
0.0705974
0.0704096
0.0704286
0.0705574
0.0707302
0.0709036
0.0710519
0.0711582
0.0712145
0.0712188
0.0711735
0.0710836
0.0709555
0.0707963
0.0706132
0.0704129
0.0702014
0.0699839
0.0697648
0.0695476
0.0693351
0.0691297
0.0689329
0.0687461
0.0685701
0.0684058
0.0682543
0.0681171
0.0679954
0.067891
0.0678032
0.0677398
0.296058
0.391704
0.452136
0.491881
0.51791
0.533952
0.542478
0.545406
0.544392
0.540925
0.536336
0.531778
0.528207
0.526372
0.526813
0.529854
0.535614
0.544023
0.554851
0.567766
0.58237
0.598252
0.615014
0.632292
0.649765
0.667163
0.684259
0.700874
0.716864
0.732122
0.746571
0.760158
0.772853
0.784644
0.795535
0.80554
0.814686
0.823005
0.830536
0.837323
0.843411
0.848848
0.853682
0.857958
0.861725
0.865026
0.867905
0.870403
0.872558
0.874406
0.875982
0.877316
0.878447
0.879401
0.880202
0.880869
0.881421
0.881872
0.882234
0.882515
0.882719
0.882851
0.882907
0.882882
0.882768
0.882551
0.882212
0.881729
0.881074
0.880213
0.879108
0.877717
0.875992
0.87388
0.871325
0.86827
0.864651
0.860408
0.855477
0.849795
0.843302
0.835938
0.827646
0.818371
0.808062
0.796671
0.784156
0.770483
0.755942
0.740621
0.724559
0.707826
0.690521
0.672764
0.654696
0.636473
0.618256
0.600211
0.582495
0.565259
0.548635
0.532733
0.51764
0.503416
0.490095
0.477686
0.466174
0.455526
0.445691
0.436609
0.42821
0.420421
0.413167
0.406375
0.399973
0.393893
0.388068
0.382428
0.376898
0.371387
0.365777
0.359967
0.353842
0.34727
0.340108
0.332217
0.323498
0.313936
0.303653
0.292945
0.282256
0.272036
0.26246
0.253118
0.242927
0.230448
0.214541
0.195009
0.172883
0.150163
0.12913
0.111526
0.0980772
0.0885583
0.0822085
0.0781599
0.0756784
0.0742269
0.0734387
0.0730693
0.0729553
0.072986
0.0730861
0.0732048
0.0733112
0.0733847
0.0734145
0.0733967
0.0733324
0.0732255
0.0730818
0.0729082
0.0727116
0.0724985
0.072275
0.0720464
0.071817
0.0715905
0.0713696
0.0711568
0.0709535
0.0707613
0.0705808
0.0704128
0.0702583
0.0701186
0.0699945
0.0698872
0.0697955
0.0697263
0.303586
0.400806
0.462807
0.504059
0.531399
0.548417
0.557496
0.560541
0.559278
0.55534
0.550252
0.545366
0.541794
0.540351
0.541548
0.545603
0.55249
0.562
0.573802
0.587498
0.602674
0.618927
0.635886
0.653221
0.670651
0.687935
0.704877
0.721317
0.737131
0.752221
0.766517
0.779968
0.792543
0.804228
0.815019
0.824924
0.83396
0.842152
0.849528
0.856121
0.861969
0.867109
0.87158
0.875423
0.878675
0.881378
0.883567
0.885281
0.886554
0.887422
0.887916
0.888069
0.887916
0.887487
0.886808
0.885903
0.884793
0.883498
0.882035
0.880419
0.878663
0.876777
0.874769
0.872645
0.870405
0.86805
0.865573
0.862966
0.860214
0.8573
0.8542
0.850888
0.84733
0.843489
0.839324
0.83479
0.829839
0.824419
0.818477
0.811958
0.804807
0.796966
0.788377
0.778982
0.768721
0.757534
0.745358
0.732285
0.718458
0.703881
0.688582
0.672621
0.656084
0.639085
0.62176
0.604265
0.586765
0.569434
0.552441
0.535949
0.520101
0.505021
0.490805
0.477519
0.465201
0.453859
0.443476
0.434012
0.42541
0.417599
0.4105
0.404029
0.398101
0.392633
0.387547
0.382767
0.378219
0.373831
0.369524
0.36521
0.360774
0.356113
0.351111
0.345633
0.339533
0.332667
0.324915
0.316227
0.306667
0.296455
0.28597
0.275659
0.265815
0.256282
0.246259
0.234458
0.21965
0.201341
0.180193
0.157932
0.136756
0.118522
0.104193
0.0937676
0.086625
0.0819447
0.0789831
0.0771729
0.0761165
0.075545
0.0752772
0.0751897
0.0751984
0.0752456
0.0752952
0.0753229
0.0753152
0.0752663
0.0751753
0.0750454
0.0748815
0.0746899
0.0744771
0.0742496
0.0740131
0.0737729
0.0735332
0.0732975
0.0730688
0.0728491
0.0726401
0.072443
0.0722586
0.0720874
0.0719303
0.0717881
0.0716614
0.0715509
0.0714551
0.0713801
0.30523
0.402527
0.465132
0.507412
0.536031
0.554393
0.564743
0.568905
0.568583
0.565439
0.561061
0.556877
0.554055
0.553434
0.555502
0.560425
0.568117
0.578314
0.590654
0.604731
0.620139
0.636494
0.653454
0.670718
0.688028
0.705167
0.721957
0.738253
0.753937
0.768919
0.783131
0.796522
0.809058
0.820718
0.831494
0.841386
0.850403
0.858559
0.865875
0.872376
0.878087
0.883039
0.887262
0.890789
0.893652
0.895882
0.897513
0.898577
0.899105
0.899128
0.898677
0.897782
0.896474
0.894789
0.892754
0.890394
0.887735
0.8848
0.881612
0.878192
0.87456
0.870734
0.866732
0.862569
0.858257
0.853807
0.849228
0.844524
0.839697
0.834743
0.829657
0.824427
0.819036
0.813465
0.807688
0.801676
0.795393
0.788804
0.781864
0.77453
0.766751
0.758476
0.749644
0.740194
0.730058
0.71916
0.707484
0.695136
0.682086
0.668321
0.653852
0.638718
0.622991
0.606771
0.590188
0.573395
0.556566
0.539882
0.523528
0.507681
0.492503
0.478131
0.464676
0.452212
0.440783
0.4304
0.421041
0.412661
0.405194
0.39856
0.392669
0.387425
0.382734
0.378504
0.374647
0.37108
0.367725
0.364505
0.36134
0.35814
0.354798
0.351205
0.347244
0.342779
0.337665
0.331753
0.324913
0.317074
0.308259
0.298632
0.28851
0.278312
0.268384
0.258733
0.24879
0.237448
0.223487
0.206232
0.186055
0.164415
0.14337
0.124812
0.109862
0.0987099
0.0908779
0.085614
0.0821871
0.0800148
0.0786777
0.0778872
0.0774468
0.0772224
0.0771215
0.0770804
0.077058
0.0770267
0.07697
0.07688
0.0767544
0.0765949
0.0764056
0.076192
0.0759602
0.0757161
0.0754654
0.0752128
0.0749625
0.0747178
0.0744815
0.0742555
0.0740413
0.0738401
0.0736523
0.0734783
0.0733188
0.0731744
0.0730453
0.0729316
0.0728318
0.0727515
0.302085
0.398349
0.460819
0.503753
0.533614
0.553598
0.565774
0.571827
0.573356
0.571952
0.569161
0.566392
0.564809
0.56525
0.568205
0.573841
0.582074
0.592652
0.605225
0.619409
0.634823
0.65111
0.66795
0.685066
0.702217
0.719202
0.735854
0.752035
0.767633
0.78256
0.796745
0.810138
0.822698
0.834402
0.845232
0.855183
0.864255
0.872455
0.879795
0.886289
0.891957
0.89682
0.900901
0.904224
0.906815
0.908698
0.909902
0.910452
0.910375
0.909698
0.908449
0.906655
0.904344
0.901552
0.898309
0.894643
0.890582
0.886152
0.881382
0.876297
0.870925
0.86529
0.859419
0.853337
0.847067
0.840632
0.834052
0.827348
0.820534
0.813625
0.806629
0.799552
0.792397
0.785159
0.77783
0.770397
0.762841
0.755139
0.747262
0.739175
0.730835
0.722196
0.713199
0.703777
0.693857
0.683377
0.672381
0.660803
0.648586
0.63569
0.6221
0.607829
0.592925
0.577473
0.561595
0.545442
0.529193
0.513044
0.497195
0.481845
0.467177
0.453348
0.440484
0.428676
0.417973
0.408387
0.399896
0.392449
0.385971
0.38037
0.375546
0.371392
0.367803
0.364678
0.36192
0.359441
0.357157
0.354987
0.352849
0.350653
0.348296
0.345665
0.342642
0.339092
0.334866
0.329817
0.323812
0.316765
0.308673
0.299657
0.289986
0.280038
0.270173
0.260496
0.250613
0.239592
0.226282
0.209918
0.190659
0.169727
0.149016
0.130389
0.115058
0.103364
0.0949604
0.0891769
0.0853119
0.0827829
0.0811583
0.0801357
0.0795067
0.079128
0.0789003
0.0787545
0.0786453
0.0785414
0.0784241
0.078283
0.0781142
0.0779182
0.077698
0.0774582
0.0772042
0.0769413
0.0766748
0.0764089
0.0761476
0.075894
0.0756503
0.0754185
0.0751996
0.0749947
0.0748041
0.0746279
0.0744665
0.0743202
0.0741889
0.0740724
0.0739692
0.0738841
0.295106
0.389658
0.45152
0.494865
0.525942
0.547735
0.562114
0.570584
0.57458
0.57555
0.574923
0.574026
0.57398
0.575614
0.579437
0.585655
0.594232
0.604964
0.61755
0.631645
0.646903
0.662996
0.679628
0.696537
0.713498
0.73032
0.74684
0.762926
0.778467
0.793373
0.807572
0.82101
0.833642
0.845438
0.856375
0.866439
0.875625
0.883931
0.89136
0.89792
0.903623
0.908482
0.912512
0.91573
0.918155
0.919806
0.920704
0.920869
0.920324
0.91909
0.917191
0.91465
0.911494
0.907757
0.903469
0.898662
0.893365
0.887609
0.881425
0.874844
0.8679
0.860624
0.853051
0.845213
0.837145
0.828881
0.820454
0.811897
0.80324
0.794513
0.78574
0.776945
0.768146
0.759358
0.75059
0.741845
0.733121
0.724408
0.715692
0.706948
0.698144
0.689238
0.680168
0.670871
0.661301
0.651426
0.641154
0.630396
0.619065
0.607087
0.594411
0.581021
0.566937
0.552224
0.536992
0.521391
0.505607
0.489851
0.474346
0.459315
0.444968
0.431488
0.419021
0.407673
0.397504
0.388528
0.380722
0.374027
0.368361
0.36362
0.359691
0.356459
0.353808
0.351627
0.349813
0.348271
0.346912
0.345653
0.344409
0.34309
0.341593
0.339805
0.337604
0.334855
0.331411
0.327126
0.321864
0.315533
0.308114
0.299699
0.290515
0.2809
0.271207
0.261593
0.251789
0.241013
0.228211
0.212595
0.194183
0.173997
0.153764
0.135273
0.119776
0.107717
0.0988674
0.0926384
0.0883723
0.0854994
0.0835861
0.0823219
0.0814907
0.0809422
0.0805717
0.0803056
0.0800948
0.0799053
0.0797155
0.0795133
0.079293
0.0790535
0.0787968
0.0785264
0.0782468
0.0779628
0.0776789
0.0773988
0.0771261
0.0768634
0.0766126
0.0763752
0.0761523
0.0759443
0.0757514
0.0755735
0.0754108
0.075263
0.0751301
0.0750114
0.0749055
0.0748164
0.285118
0.377654
0.438689
0.482337
0.514631
0.538347
0.555149
0.566345
0.573169
0.576883
0.578756
0.579996
0.581653
0.584544
0.589205
0.595902
0.604675
0.615393
0.627821
0.64167
0.656638
0.672426
0.688764
0.705404
0.722132
0.738764
0.75514
0.771129
0.786618
0.801516
0.815748
0.829253
0.841983
0.853899
0.864974
0.875188
0.884526
0.892981
0.900549
0.90723
0.913028
0.917949
0.922002
0.925198
0.927548
0.929065
0.929764
0.929661
0.928772
0.927113
0.924705
0.921567
0.91772
0.913198
0.908032
0.902254
0.895896
0.888993
0.881579
0.873689
0.865361
0.856634
0.847548
0.838146
0.828471
0.818567
0.808481
0.798257
0.787939
0.777572
0.767197
0.756852
0.746573
0.736394
0.72634
0.71643
0.706676
0.697086
0.68766
0.678381
0.669227
0.660169
0.651127
0.642124
0.633055
0.623826
0.614327
0.604438
0.594036
0.583012
0.571276
0.558772
0.545491
0.531473
0.516815
0.501666
0.486219
0.470705
0.455373
0.440477
0.426258
0.412928
0.400659
0.389573
0.379743
0.371185
0.363875
0.357746
0.352705
0.348639
0.345424
0.342933
0.341041
0.339631
0.338593
0.337826
0.337238
0.336742
0.336251
0.335673
0.334906
0.333836
0.332337
0.330274
0.327501
0.323874
0.319259
0.313561
0.306751
0.298902
0.290209
0.280974
0.271529
0.262054
0.252362
0.241795
0.229404
0.214423
0.196785
0.177355
0.1577
0.139511
0.124031
0.111772
0.102597
0.0960019
0.0913781
0.0881803
0.0859813
0.0844697
0.0834252
0.0826932
0.0821651
0.0817641
0.0814379
0.0811499
0.0808764
0.0806032
0.080323
0.0800332
0.0797344
0.0794291
0.0791208
0.0788133
0.0785104