/*--------------------------------*- C++ -*----------------------------------*\
  =========                 |
  \\      /  F ield         | OpenFOAM: The Open Source CFD Toolbox
   \\    /   O peration     | Website:  https://openfoam.org
    \\  /    A nd           | Version:  9
     \\/     M anipulation  |
\*---------------------------------------------------------------------------*/
FoamFile
{
    format      ascii;
    class       volScalarField;
    location    "0.09";
    object      nut;
}
// * * * * * * * * * * * * * * * * * * * * * * * * * * * * * * * * * * * * * //

dimensions      [0 2 -1 0 0 0 0];

internalField   nonuniform List<scalar> 
12225
(
3.05093e-05
1.83879e-05
1.19217e-05
8.52343e-06
6.68781e-06
5.61779e-06
4.91758e-06
4.40239e-06
3.98946e-06
3.64083e-06
3.33706e-06
3.06677e-06
2.8229e-06
2.60173e-06
2.40381e-06
2.24198e-06
2.20209e-06
3.5591e-06
0.00016309
0.000102467
8.26106e-05
7.34722e-05
6.83632e-05
6.48305e-05
6.18353e-05
5.90358e-05
5.63656e-05
5.38237e-05
5.14088e-05
4.91173e-05
4.69549e-05
4.49517e-05
4.31924e-05
4.19189e-05
4.18457e-05
4.32101e-05
0.000338804
0.000220975
0.000179305
0.000158333
0.000145702
0.00013695
0.000129999
0.000123914
0.000118321
0.000113079
0.000108128
0.000103449
9.90608e-05
9.5039e-05
9.15615e-05
8.90189e-05
8.78742e-05
8.73348e-05
0.000503112
0.000350021
0.000285843
0.000251103
0.000229286
0.000214016
0.000202195
0.000192247
0.00018339
0.000175235
0.000167582
0.000160336
0.000153484
0.000147103
0.000141392
0.000136692
0.000132975
0.000128916
0.000628424
0.000471781
0.000392288
0.000345517
0.000314799
0.000292845
0.000275887
0.000261859
0.000249616
0.000238515
0.000228188
0.00021843
0.000209156
0.000200399
0.000192303
0.000185047
0.000178176
0.000170183
0.000714014
0.000575892
0.00049135
0.000436734
0.000398925
0.000371082
0.000349328
0.00033137
0.000315838
0.000301897
0.000289027
0.000276915
0.00026539
0.000254407
0.000244009
0.000234173
0.000224161
0.000212492
0.0007688
0.000658461
0.000578106
0.000520814
0.000478722
0.000446553
0.000420895
0.000399543
0.000381075
0.000364563
0.000349395
0.000335172
0.000321645
0.000308685
0.000296217
0.000284033
0.000271244
0.000256499
0.000802469
0.000720099
0.000650043
0.00059489
0.000551682
0.000517223
0.000488981
0.000465112
0.000444318
0.000425694
0.000408604
0.000392608
0.000377404
0.000362791
0.000348591
0.000334453
0.000319449
0.000302398
0.000822621
0.00076388
0.000706785
0.000657335
0.000615936
0.000581346
0.000552071
0.000526804
0.000504512
0.000484409
0.000465911
0.000448585
0.000432111
0.000416242
0.000400728
0.000385134
0.000368573
0.000350046
0.000834477
0.000793716
0.000749539
0.000707757
0.000670395
0.000637617
0.000608874
0.000583434
0.000560602
0.000539788
0.000520514
0.000502399
0.000485142
0.000468483
0.000452137
0.000435646
0.000418212
0.000399021
0.000841378
0.000813361
0.000780435
0.000746808
0.000714793
0.000685298
0.000658448
0.00063401
0.000611629
0.000590935
0.000571589
0.000553299
0.00053581
0.000518883
0.000502232
0.000485426
0.000467788
0.000448677
0.000845043
0.000824885
0.000800125
0.000773405
0.000746654
0.00072095
0.000696745
0.000674123
0.000652981
0.000633135
0.000614381
0.000596517
0.000579351
0.000562677
0.000546242
0.000529662
0.000512377
0.000493886
0.000847299
0.000832524
0.000814086
0.000793369
0.000771716
0.000750084
0.000729033
0.000708827
0.000689542
0.000671149
0.000653564
0.00063668
0.000620369
0.00060448
0.000588806
0.000573036
0.000556738
0.000539538
0.000848783
0.000837891
0.000824556
0.000809251
0.000792686
0.00077552
0.000758244
0.000741175
0.00072449
0.000708273
0.000692543
0.000677277
0.000662423
0.00064789
0.000633534
0.000619131
0.00060438
0.000589033
0.000849678
0.000841317
0.000831671
0.000820714
0.000808671
0.000795858
0.000782585
0.000769105
0.000755607
0.000742218
0.000729017
0.000716046
0.000703311
0.000690782
0.000678381
0.000665972
0.000653375
0.000640455
0.000850169
0.000843284
0.000835995
0.000828107
0.000819576
0.000810465
0.000800891
0.000790986
0.000780878
0.000770675
0.000760467
0.000750317
0.000740266
0.000730325
0.000720469
0.000710638
0.000700746
0.000690742
0.000850407
0.00084428
0.0008383
0.000832273
0.000826072
0.000819638
0.000812961
0.00080607
0.000799015
0.000791855
0.00078465
0.000777454
0.000770309
0.000763242
0.000756259
0.000749345
0.000742475
0.000735637
0.000850498
0.000844684
0.000839287
0.000834158
0.000829177
0.000824261
0.000819363
0.000814465
0.000809572
0.000804706
0.000799896
0.000795174
0.000790571
0.000786108
0.000781799
0.000777645
0.000773643
0.000769786
0.000850484
0.000844654
0.000839262
0.000834185
0.000829339
0.000824672
0.000820167
0.000815826
0.000811667
0.000807716
0.000804003
0.000800553
0.000797391
0.000794532
0.000791984
0.000789747
0.000787811
0.000786147
0.000850288
0.00084388
0.000837544
0.000831195
0.000824843
0.000818561
0.000812451
0.000806615
0.000801144
0.000796112
0.000791571
0.000787559
0.000784092
0.000781176
0.000778802
0.000776954
0.000775599
0.000774669
0.000849737
0.000841739
0.000832978
0.000823605
0.000813938
0.000804324
0.000795065
0.000786385
0.000778439
0.000771317
0.000765063
0.000759688
0.000755178
0.000751502
0.000748619
0.00074648
0.000745022
0.000744142
0.000848225
0.000836207
0.000821979
0.000806578
0.000791028
0.000776105
0.000762284
0.000749817
0.000738803
0.000729245
0.000721092
0.000714263
0.000708663
0.000704194
0.000700758
0.000698259
0.000696596
0.00069563
0.000844315
0.000823228
0.000798531
0.000773293
0.000749513
0.000728151
0.000709448
0.000693384
0.00067977
0.000668367
0.00065893
0.000651231
0.000645063
0.000640245
0.000636616
0.000634035
0.00063237
0.000631451
0.00083469
0.000795573
0.000754332
0.000716496
0.000683937
0.000656814
0.000634663
0.000616612
0.000601925
0.000590034
0.000580475
0.000572872
0.00056692
0.000562375
0.000559033
0.000556728
0.000555313
0.000554612
0.000812171
0.000742314
0.000680619
0.000631276
0.000592898
0.000563244
0.000540332
0.000522668
0.000508941
0.000498152
0.00048969
0.000483105
0.000478053
0.000474271
0.000471555
0.000469743
0.000468698
0.000468262
0.000762768
0.00065105
0.000572594
0.000518447
0.000480263
0.000452755
0.000432563
0.000417537
0.000406333
0.000397852
0.000391308
0.000386277
0.000382455
0.000379615
0.00037759
0.000376252
0.000375498
0.000375208
0.000663895
0.00051499
0.000434489
0.000386105
0.000354762
0.000333523
0.000318615
0.00030784
0.000299912
0.000294122
0.000289688
0.00028625
0.000283592
0.000281565
0.000280064
0.000279012
0.000278349
0.000278006
0.000492678
0.00034406
0.0002817
0.000247983
0.00022755
0.000214438
0.000205582
0.000199284
0.000194622
0.000191112
0.000188496
0.000186349
0.00018458
0.000183131
0.000181966
0.000181054
0.000180372
0.000179895
0.000262132
0.000171239
0.000137747
0.000120406
0.00011037
0.000104251
0.000100228
9.73377e-05
9.51165e-05
9.33556e-05
9.19989e-05
9.08206e-05
8.97947e-05
8.89181e-05
8.81838e-05
8.75825e-05
8.71054e-05
8.67449e-05
5.96699e-05
4.26117e-05
3.14425e-05
2.40999e-05
1.92549e-05
1.60357e-05
1.38625e-05
1.23541e-05
1.12715e-05
1.04695e-05
9.86254e-06
9.40648e-06
9.05658e-06
8.78333e-06
8.56819e-06
8.39864e-06
8.26581e-06
8.16336e-06
1.125e-05
9.41604e-05
0.000116519
0.000132848
0.000145175
0.000154743
0.000162454
0.000169041
0.000175197
0.000181537
0.000187411
0.000191529
0.000193613
0.000197972
0.000199832
0.000209586
0.000214491
0.000209662
0.000209919
0.000212559
4.48474e-05
0.000215333
0.00021155
4.32813e-05
4.69437e-05
0.000218921
4.74592e-05
4.8925e-05
5.06816e-05
5.23922e-05
5.40169e-05
5.5543e-05
5.69667e-05
5.82893e-05
5.95147e-05
6.06485e-05
6.1697e-05
6.26665e-05
6.35636e-05
6.43943e-05
6.51643e-05
6.58789e-05
6.6543e-05
6.7161e-05
6.77371e-05
6.82751e-05
6.87786e-05
6.92512e-05
6.96967e-05
7.0119e-05
7.05223e-05
7.09118e-05
7.13056e-05
7.16731e-05
7.20161e-05
7.23367e-05
7.26357e-05
7.29137e-05
7.31705e-05
7.34059e-05
7.36195e-05
7.38106e-05
7.39784e-05
7.4122e-05
7.42404e-05
7.43324e-05
7.43967e-05
7.4432e-05
7.44367e-05
7.44093e-05
7.43481e-05
7.42514e-05
7.41174e-05
7.39443e-05
7.37304e-05
7.34738e-05
7.31728e-05
7.28257e-05
7.24309e-05
7.1987e-05
7.14928e-05
7.0947e-05
7.0349e-05
6.96982e-05
6.89943e-05
6.82378e-05
6.74294e-05
6.65698e-05
6.56638e-05
6.48355e-05
6.43627e-05
6.39337e-05
6.34948e-05
6.30343e-05
6.25501e-05
6.20438e-05
6.15179e-05
6.09755e-05
6.04199e-05
5.98544e-05
5.92821e-05
5.87059e-05
5.81284e-05
5.75518e-05
5.69778e-05
5.64078e-05
5.58425e-05
5.52823e-05
5.47271e-05
5.41764e-05
5.36289e-05
5.30832e-05
5.25375e-05
5.19894e-05
5.14359e-05
5.08745e-05
5.03048e-05
4.97145e-05
4.90658e-05
4.84118e-05
4.77114e-05
4.75802e-05
0.000199519
0.000196691
0.000193553
0.000190587
0.00018816
0.000186508
0.000185504
0.000184332
0.000181261
0.000173894
0.000160074
0.000139188
0.000113146
8.61229e-05
6.26981e-05
4.55101e-05
3.45135e-05
2.81342e-05
2.46702e-05
2.28924e-05
2.20516e-05
2.17213e-05
2.16637e-05
2.17456e-05
2.18912e-05
2.20565e-05
2.22155e-05
2.23537e-05
2.24643e-05
2.25471e-05
2.26108e-05
2.26402e-05
2.26279e-05
2.25761e-05
2.24895e-05
2.23736e-05
2.22336e-05
2.20747e-05
2.19011e-05
2.17168e-05
2.15248e-05
2.13279e-05
2.11278e-05
2.09264e-05
2.07248e-05
2.05239e-05
2.03243e-05
2.01259e-05
1.99285e-05
1.97351e-05
1.95471e-05
1.93609e-05
1.91739e-05
1.89833e-05
1.87856e-05
1.85761e-05
1.83362e-05
1.80485e-05
1.69067e-05
6.86567e-05
0.000118512
0.00016044
0.000194718
0.000222181
0.000243638
0.000259793
0.000271131
0.000277005
0.00027689
0.00026912
0.000253044
0.000248954
0.000238701
0.000237565
0.000232858
0.000225626
0.000222399
0.000218445
0.000207802
0.000212347
0.000206789
0.000197452
0.000197238
0.000203095
0.000197173
0.000199401
0.00020366
0.000209236
0.000215946
0.000223661
0.000232253
0.000241585
0.00025152
0.000261919
0.000272655
0.000283613
0.000294696
0.000305826
0.000316941
0.000327997
0.000338962
0.00034981
0.000360517
0.000371061
0.000381409
0.00039152
0.000401339
0.000410787
0.000419767
0.000428169
0.000435454
0.000442631
0.000449823
0.000457045
0.000464296
0.000471574
0.000478869
0.000486175
0.000493478
0.000500764
0.000508017
0.000515216
0.000522342
0.000529368
0.00053627
0.000543018
0.000549581
0.000555927
0.00056202
0.000567825
0.000573304
0.000578417
0.000583127
0.000587394
0.000591179
0.000594443
0.00059715
0.000599264
0.00060075
0.000601578
0.000601715
0.000601129
0.000599784
0.000597626
0.000594557
0.000590354
0.000584462
0.000575924
0.000566023
0.000555382
0.000544235
0.000532699
0.00052086
0.000508792
0.000496565
0.000484245
0.000471897
0.000459577
0.000447338
0.000435226
0.000423281
0.000411533
0.000400006
0.000388716
0.000377671
0.000366872
0.000356314
0.000345985
0.000335871
0.000325951
0.0003162
0.00030659
0.000297089
0.000287665
0.000278267
0.000268673
0.000257409
0.000245368
0.000232599
0.000216524
0.00023744
0.000252086
0.000262469
0.000269709
0.000274525
0.000277453
0.000278789
0.000278333
0.000275125
0.000267528
0.0002539
0.000233671
0.000208198
0.000180708
0.000155114
0.000134424
0.00011983
0.000110866
0.000106196
0.000104403
0.000104382
0.000105396
0.000106974
0.00010882
0.00011074
0.000112606
0.000114329
0.000115849
0.000117125
0.000118134
0.000118881
0.000119436
0.000119791
0.000119959
0.000119959
0.000119814
0.000119547
0.00011918
0.000118735
0.000118231
0.000117683
0.000117106
0.000116511
0.000115906
0.000115297
0.00011469
0.000114087
0.00011349
0.000112893
0.000112261
0.000111633
0.000110998
0.000110339
0.00010963
0.000108822
0.000107825
0.000106353
0.000103682
2.60058e-05
9.39487e-05
0.000161152
0.000216971
0.000261367
0.000295536
0.00032061
0.000337628
0.000347234
0.0003503
0.000348164
0.00034199
0.000334568
0.000329051
0.000324466
0.000321657
0.000318983
0.000316215
0.000313921
0.0003116
0.000309255
0.000308848
0.000309388
0.00031226
0.000319357
0.000329685
0.000341873
0.000358266
0.000377676
0.000399486
0.000423191
0.000448293
0.000474299
0.000500749
0.000527234
0.000553421
0.000579053
0.000603949
0.000627997
0.000651139
0.000673363
0.000694681
0.000715126
0.000734736
0.000753549
0.000771597
0.000788903
0.000805482
0.000821337
0.000836464
0.000850863
0.000864542
0.000877643
0.000890568
0.000903422
0.000916228
0.000928989
0.000941695
0.000954333
0.000966887
0.000979333
0.000991643
0.00100379
0.00101573
0.00102742
0.00103883
0.0010499
0.00106058
0.00107081
0.00108053
0.00108968
0.00109819
0.00110599
0.00111303
0.00111922
0.0011245
0.00112881
0.00113207
0.00113423
0.00113523
0.00113501
0.00113352
0.00113071
0.00112654
0.00112095
0.00111386
0.00110517
0.00109468
0.00108205
0.00106689
0.00105005
0.00103199
0.001013
0.000993268
0.000972939
0.000952151
0.000931033
0.00090971
0.000888298
0.000866907
0.000845636
0.000824572
0.000803791
0.00078335
0.000763294
0.000743653
0.00072444
0.000705656
0.000687287
0.000669307
0.000651681
0.000634363
0.000617299
0.000600426
0.000583673
0.000566956
0.000550161
0.000533048
0.000514913
0.00049482
0.000472851
0.000449187
0.000432993
0.000419127
0.000406197
0.000393797
0.000382044
0.000371228
0.000361565
0.000352856
0.00034411
0.000333486
0.000318879
0.000298942
0.000273986
0.000246169
0.000218838
0.000195452
0.00017858
0.000169214
0.00016661
0.000168815
0.000173632
0.000179394
0.000185162
0.000190531
0.00019537
0.000199657
0.000203393
0.000206585
0.000209234
0.000211347
0.000212945
0.000214134
0.000214935
0.00021538
0.000215508
0.000215361
0.000214983
0.000214417
0.000213701
0.000212872
0.000211961
0.000210994
0.000209992
0.000208972
0.000207947
0.000206926
0.000205916
0.000204917
0.000203926
0.00020292
0.000201896
0.000200862
0.000199791
0.000198644
0.000197348
0.000195767
0.000193535
0.000189972
3.61113e-05
0.000126121
0.000212662
0.000280906
0.000332022
0.000368521
0.000392405
0.000405801
0.000410937
0.00041063
0.000407315
0.000402928
0.000398894
0.000395984
0.000394088
0.000393011
0.000392403
0.000392343
0.000393308
0.000395859
0.000400798
0.000409159
0.000421574
0.000438631
0.000460602
0.000487027
0.000517347
0.000551248
0.000587779
0.000626071
0.000665344
0.000704906
0.000744163
0.000782635
0.000819961
0.000855889
0.000890264
0.00092301
0.000954117
0.000983618
0.00101158
0.00103808
0.00106323
0.0010871
0.0011098
0.00113141
0.001152
0.00117165
0.00119042
0.00120836
0.00122553
0.00124199
0.00125797
0.00127368
0.00128917
0.00130448
0.0013196
0.00133454
0.00134928
0.0013638
0.00137808
0.00139208
0.00140576
0.0014191
0.00143203
0.0014445
0.00145647
0.00146785
0.00147859
0.00148862
0.00149785
0.00150621
0.00151363
0.00152001
0.00152528
0.00152937
0.00153218
0.00153365
0.00153371
0.00153228
0.00152931
0.00152473
0.0015185
0.00151057
0.00150088
0.00148938
0.00147599
0.00146059
0.00144303
0.00142324
0.00140185
0.00137913
0.0013553
0.00133055
0.00130507
0.001279
0.00125252
0.00122578
0.00119893
0.00117211
0.00114545
0.00111906
0.00109304
0.00106746
0.00104239
0.00101785
0.000993875
0.000970447
0.00094755
0.000925145
0.00090318
0.000881587
0.000860288
0.000839192
0.000818195
0.000797175
0.000775972
0.000754334
0.000731772
0.000707356
0.000680741
0.000651912
0.0006228
0.000593619
0.000564414
0.000535293
0.000506684
0.000479353
0.000454242
0.000432078
0.000412767
0.000394984
0.000376474
0.00035507
0.000329813
0.000301491
0.000272456
0.000245989
0.00022548
0.00021343
0.000210514
0.000215271
0.000224806
0.000236127
0.00024716
0.000256938
0.00026524
0.00027218
0.000277948
0.000282709
0.000286584
0.000289658
0.000291994
0.000293729
0.000294916
0.000295607
0.000295858
0.00029573
0.000295283
0.000294574
0.000293657
0.000292581
0.000291389
0.000290118
0.000288797
0.00028745
0.000286097
0.000284749
0.000283416
0.000282101
0.000280802
0.000279505
0.000278193
0.00027687
0.000275507
0.000274062
0.000272457
0.000270555
0.000268041
0.00026454
4.69975e-05
0.000160391
0.000263901
0.000341889
0.000397306
0.000434245
0.000456448
0.000467076
0.00046993
0.000468329
0.0004649
0.000461421
0.00045886
0.000457579
0.000457602
0.000458973
0.000461936
0.000467064
0.000475185
0.000487199
0.00050394
0.000526033
0.000553722
0.000586875
0.000624991
0.000667253
0.000712745
0.000760531
0.000809627
0.000859157
0.000908384
0.000956711
0.00100367
0.00104893
0.00109224
0.00113348
0.00117258
0.00120955
0.00124443
0.0012773
0.00130827
0.00133744
0.00136496
0.00139092
0.00141547
0.0014387
0.00146072
0.00148163
0.00150152
0.00152046
0.00153852
0.00155577
0.00157246
0.0015887
0.00160457
0.00162009
0.00163528
0.00165012
0.00166463
0.00167878
0.00169255
0.00170592
0.00171886
0.00173131
0.00174325
0.00175461
0.00176534
0.00177537
0.00178464
0.00179308
0.0018006
0.00180714
0.00181261
0.00181692
0.00182
0.00182176
0.00182212
0.00182102
0.00181836
0.0018141
0.00180816
0.0018005
0.00179105
0.00177979
0.00176666
0.00175164
0.00173466
0.0017157
0.00169467
0.0016717
0.00164727
0.00162155
0.00159472
0.00156694
0.0015384
0.00150927
0.00147972
0.00144993
0.00142007
0.00139028
0.00136072
0.00133152
0.00130277
0.00127457
0.00124698
0.00122004
0.00119376
0.00116813
0.00114312
0.00111867
0.00109472
0.00107118
0.00104794
0.0010249
0.00100192
0.000978838
0.000955475
0.000931561
0.000906665
0.000880002
0.000851027
0.000819444
0.000785481
0.000749409
0.000711502
0.000672058
0.000631632
0.000591209
0.000552224
0.000516308
0.000484635
0.000457105
0.0004321
0.000407201
0.000380438
0.000351244
0.000320754
0.000291584
0.000267268
0.000251294
0.000245805
0.000250559
0.00026291
0.000278999
0.000295399
0.000310082
0.000322349
0.000332283
0.000340243
0.0003466
0.000351647
0.000355591
0.000358573
0.000360769
0.000362275
0.000363168
0.000363523
0.000363414
0.000362916
0.000362098
0.000361026
0.000359758
0.000358347
0.000356837
0.000355266
0.000353663
0.00035205
0.000350446
0.00034886
0.000347299
0.000345762
0.000344239
0.000342712
0.000341177
0.000339608
0.000337961
0.000336165
0.000334098
0.000331528
0.000328313
5.8178e-05
0.000190168
0.000308603
0.000395732
0.000455883
0.000494542
0.000516332
0.000526124
0.000528183
0.000526111
0.000522657
0.000519642
0.000518099
0.000518564
0.000521402
0.000527063
0.000536193
0.000549609
0.000568149
0.000592482
0.000622961
0.000659542
0.00070179
0.000748954
0.000800081
0.00085412
0.000910038
0.000966875
0.00102377
0.00108001
0.00113501
0.00118833
0.00123964
0.00128871
0.00133541
0.00137965
0.00142143
0.00146079
0.00149778
0.00153252
0.0015651
0.00159565
0.0016243
0.00165119
0.00167643
0.00170015
0.00172246
0.00174347
0.00176328
0.00178196
0.00179959
0.00181623
0.00183214
0.00184741
0.00186212
0.00187629
0.00188996
0.00190313
0.00191581
0.001928
0.00193967
0.00195083
0.00196143
0.00197146
0.00198086
0.00198961
0.00199765
0.00200492
0.00201137
0.00201693
0.00202153
0.0020251
0.00202756
0.00202884
0.00202886
0.00202754
0.00202482
0.00202062
0.00201488
0.00200753
0.00199852
0.0019878
0.00197534
0.00196108
0.00194501
0.00192711
0.00190735
0.00188571
0.0018622
0.00183703
0.00181059
0.001783
0.00175439
0.00172491
0.00169475
0.00166407
0.00163304
0.00160186
0.0015707
0.00153971
0.00150906
0.00147887
0.00144926
0.00142031
0.00139208
0.00136462
0.00133791
0.00131194
0.00128667
0.00126201
0.00123789
0.00121419
0.00119079
0.00116754
0.00114429
0.00112085
0.00109701
0.00107248
0.00104686
0.00101944
0.000989611
0.000956945
0.00092119
0.000882262
0.000840199
0.000795165
0.000747602
0.000698416
0.000649119
0.000601777
0.000558514
0.000520575
0.000487541
0.00045745
0.000427882
0.0003972
0.000365326
0.000333951
0.000306272
0.000286199
0.000276973
0.000279713
0.000292687
0.000311935
0.000332996
0.000352577
0.00036912
0.000382387
0.000392783
0.000400864
0.000407118
0.000411908
0.00041549
0.000418085
0.000419857
0.000420911
0.000421342
0.000421241
0.000420695
0.000419783
0.00041858
0.000417154
0.000415563
0.000413859
0.000412084
0.000410272
0.000408451
0.00040664
0.000404853
0.000403097
0.000401372
0.000399673
0.000397983
0.000396292
0.000394575
0.000392792
0.000390881
0.000388739
0.000386209
0.00038329
6.86975e-05
0.000216692
0.000347871
0.00044333
0.000508299
0.00054931
0.000572493
0.000583081
0.000585628
0.000583964
0.000581072
0.000579058
0.000579302
0.000582731
0.000590087
0.000602104
0.000619538
0.000643072
0.000673168
0.000709933
0.000753074
0.000801938
0.000855611
0.00091304
0.000973142
0.00103488
0.00109731
0.00115961
0.00122111
0.00128124
0.00133957
0.00139577
0.00144961
0.00150091
0.00154959
0.00159561
0.00163898
0.00167973
0.00171794
0.0017537
0.00178711
0.0018183
0.00184739
0.00187449
0.00189974
0.00192325
0.00194513
0.00196549
0.00198443
0.00200203
0.00201836
0.00203349
0.00204766
0.00206098
0.00207352
0.00208532
0.00209643
0.00210687
0.00211665
0.00212578
0.00213427
0.00214211
0.00214929
0.00215579
0.00216159
0.00216665
0.00217094
0.00217443
0.00217705
0.00217877
0.00217952
0.00217924
0.00217788
0.00217537
0.00217164
0.00216664
0.00216031
0.00215257
0.00214338
0.0021327
0.00212046
0.00210664
0.00209121
0.00207414
0.00205541
0.00203501
0.00201294
0.00198921
0.00196384
0.00193718
0.00190947
0.00188079
0.00185127
0.00182105
0.00179029
0.00175916
0.00172783
0.00169649
0.00166532
0.00163447
0.0016041
0.00157435
0.00154531
0.00151708
0.00148971
0.00146321
0.00143757
0.00141276
0.00138871
0.00136531
0.00134247
0.00132003
0.00129786
0.00127576
0.00125358
0.00123108
0.00120803
0.00118414
0.00115898
0.00113193
0.00110232
0.00106969
0.00103363
0.000993833
0.0009501
0.000902392
0.00085095
0.000796473
0.00074031
0.000684556
0.000631793
0.000584278
0.000542878
0.000506583
0.000473121
0.000440231
0.000406817
0.00037359
0.000343136
0.000319345
0.000306116
0.000305716
0.000317568
0.000338225
0.000362755
0.00038675
0.000407581
0.000424407
0.000437478
0.000447452
0.000455
0.00046066
0.000464822
0.000467786
0.000469784
0.000470961
0.00047144
0.000471328
0.000470726
0.000469722
0.000468399
0.000466832
0.000465085
0.000463215
0.000461268
0.000459283
0.000457289
0.000455309
0.000453357
0.000451443
0.00044957
0.000447733
0.000445917
0.000444109
0.000442287
0.000440415
0.000438437
0.000436274
0.000433821
0.000431155
7.80345e-05
0.000238807
0.000380379
0.000482948
0.00055288
0.000597721
0.000623879
0.000636829
0.000641316
0.000641379
0.000640295
0.000640558
0.000643981
0.000651883
0.000665269
0.000684936
0.000711462
0.000745135
0.000785877
0.000833222
0.000886381
0.000944343
0.001006
0.00107026
0.00113609
0.00120256
0.0012689
0.00133443
0.00139861
0.00146101
0.00152129
0.00157918
0.00163452
0.00168716
0.00173705
0.00178415
0.00182847
0.00187005
0.00190895
0.00194524
0.00197903
0.00201041
0.0020395
0.00206641
0.00209124
0.00211412
0.00213514
0.0021544
0.002172
0.00218801
0.00220253
0.00221561
0.00222747
0.00223824
0.00224799
0.00225679
0.00226469
0.00227172
0.00227791
0.00228329
0.00228787
0.00229166
0.00229466
0.00229688
0.0022983
0.00229891
0.0022987
0.00229763
0.00229568
0.00229282
0.002289
0.0022842
0.00227835
0.00227143
0.00226339
0.00225417
0.00224374
0.00223206
0.00221908
0.00220478
0.00218912
0.00217207
0.00215363
0.00213377
0.0021125
0.00208981
0.00206571
0.00204024
0.00201344
0.00198575
0.00195728
0.00192808
0.00189828
0.001868
0.00183739
0.00180662
0.00177587
0.00174531
0.00171511
0.00168544
0.00165644
0.00162824
0.00160094
0.00157461
0.00154929
0.00152497
0.00150163
0.0014792
0.00145758
0.00143664
0.00141624
0.00139621
0.00137636
0.00135649
0.00133639
0.00131582
0.00129452
0.00127217
0.00124835
0.00122247
0.00119384
0.001162
0.00112649
0.00108689
0.00104286
0.00099419
0.000940941
0.000883587
0.000823237
0.000761806
0.000701951
0.000646488
0.000597328
0.000554566
0.000516524
0.000480788
0.000445557
0.000410655
0.00037795
0.000351027
0.000334059
0.000330137
0.000339777
0.000360366
0.000387034
0.00041462
0.000439444
0.000459863
0.000475767
0.00048779
0.000496737
0.000503317
0.000508066
0.00051138
0.000513572
0.000514838
0.000515334
0.000515189
0.000514515
0.000513412
0.000511971
0.000510271
0.000508381
0.000506363
0.000504266
0.000502132
0.000499991
0.000497869
0.000495783
0.000493742
0.00049175
0.000489803
0.000487891
0.000485997
0.000484101
0.000482172
0.000480161
0.000478008
0.000475644
0.000473185
8.57428e-05
0.000255115
0.000404375
0.000513649
0.000589271
0.000638992
0.000669435
0.000686213
0.000694181
0.00069754
0.000699824
0.000703876
0.000711874
0.000725414
0.000745603
0.000773115
0.000808209
0.000850723
0.00090011
0.000955509
0.00101586
0.00108004
0.00114692
0.00121548
0.0012848
0.00135411
0.00142274
0.00149015
0.00155588
0.0016196
0.00168102
0.00173993
0.00179617
0.00184963
0.00190026
0.00194803
0.00199292
0.00203498
0.00207424
0.00211078
0.00214466
0.00217598
0.00220482
0.00223129
0.00225548
0.00227749
0.00229741
0.00231534
0.00233135
0.00234554
0.00235798
0.00236872
0.00237799
0.00238589
0.00239254
0.00239799
0.00240232
0.00240556
0.00240777
0.00240898
0.00240922
0.00240851
0.00240687
0.00240432
0.00240087
0.00239652
0.00239128
0.00238513
0.00237808
0.00237011
0.00236121
0.00235135
0.00234053
0.00232871
0.00231588
0.00230202
0.0022871
0.00227111
0.00225403
0.00223585
0.00221655
0.00219612
0.00217457
0.0021519
0.00212811
0.00210321
0.00207723
0.00205019
0.0020223
0.00199389
0.00196499
0.00193565
0.00190599
0.00187613
0.00184621
0.00181639
0.00178684
0.00175775
0.00172926
0.00170155
0.00167475
0.00164899
0.00162434
0.00160086
0.00157857
0.00155743
0.00153738
0.00151831
0.0015001
0.00148258
0.00146555
0.00144881
0.00143214
0.0014153
0.00139805
0.00138012
0.00136123
0.00134104
0.00131915
0.001295
0.00126785
0.00123729
0.00120284
0.00116405
0.00112049
0.00107186
0.00101808
0.000959434
0.000896802
0.000831846
0.000767084
0.000705528
0.000649774
0.000600909
0.000558065
0.000519063
0.000481738
0.000445222
0.000410674
0.000381224
0.000361034
0.000353703
0.000360634
0.000380121
0.000407717
0.000437923
0.000466194
0.000490028
0.000508794
0.000522962
0.000533397
0.000540947
0.000546295
0.00054995
0.000552311
0.000553636
0.000554117
0.000553911
0.000553145
0.000551931
0.000550365
0.000548533
0.000546508
0.000544353
0.000542121
0.000539855
0.000537589
0.000535347
0.000533149
0.000531004
0.000528917
0.000526887
0.000524902
0.000522946
0.000521001
0.000519039
0.00051702
0.000514895
0.000512623
0.000510333
9.04756e-05
0.000265368
0.000420873
0.000536222
0.000617592
0.00067279
0.000708493
0.000730336
0.000743196
0.000751342
0.000758463
0.00076762
0.000781209
0.000800955
0.000827938
0.00086264
0.000905007
0.000954534
0.00101037
0.00107147
0.00113668
0.00120488
0.00127502
0.00134618
0.00141757
0.00148851
0.00155845
0.00162691
0.00169353
0.001758
0.00182008
0.00187959
0.00193638
0.00199034
0.00204143
0.0020896
0.00213484
0.00217716
0.00221659
0.00225319
0.002287
0.00231811
0.00234657
0.00237248
0.00239592
0.00241696
0.00243569
0.0024522
0.00246655
0.00247883
0.0024891
0.00249744
0.00250401
0.00250895
0.00251238
0.00251437
0.00251499
0.00251431
0.00251238
0.00250924
0.00250495
0.00249953
0.00249303
0.00248548
0.0024769
0.00246731
0.00245675
0.00244523
0.00243276
0.00241936
0.00240504
0.0023898
0.00237366
0.00235662
0.0023387
0.00231989
0.0023002
0.00227964
0.00225822
0.00223596
0.00221285
0.00218892
0.00216418
0.00213864
0.00211233
0.00208527
0.00205749
0.00202903
0.00200029
0.00197134
0.00194221
0.00191297
0.00188372
0.00185457
0.00182567
0.00179718
0.00176926
0.00174208
0.00171582
0.00169062
0.00166663
0.00164394
0.00162263
0.00160273
0.00158421
0.00156702
0.00155104
0.00153612
0.00152208
0.0015087
0.00149573
0.00148294
0.00147004
0.00145677
0.00144287
0.00142803
0.00141197
0.00139433
0.00137472
0.00135259
0.00132723
0.00129824
0.00126515
0.00122751
0.00118485
0.00113684
0.0010833
0.00102438
0.000960766
0.00089387
0.000825981
0.000760076
0.000699108
0.000644919
0.00059747
0.000555059
0.000515465
0.000477354
0.000441271
0.000409842
0.000387035
0.000376692
0.000380861
0.000398659
0.000426239
0.000458105
0.000489129
0.000516013
0.00053752
0.000553838
0.0005658
0.000574352
0.000580308
0.000584294
0.0005868
0.00058815
0.000588585
0.000588289
0.000587408
0.000586065
0.000584364
0.000582396
0.000580237
0.000577952
0.000575596
0.000573213
0.000570837
0.000568494
0.000566203
0.000563975
0.000561815
0.000559721
0.000557683
0.000555686
0.000553713
0.000551737
0.000549727
0.000547642
0.000545461
0.000543314
9.27677e-05
0.000270708
0.000430677
0.000551237
0.000638173
0.000699152
0.000740777
0.000768606
0.000787451
0.000801552
0.000814615
0.000829765
0.00084946
0.000875428
0.000908663
0.000949477
0.000997606
0.00105235
0.00111273
0.00117765
0.00124597
0.00131665
0.00138873
0.00146139
0.00153393
0.00160576
0.00167638
0.00174541
0.00181249
0.00187737
0.00193981
0.00199966
0.00205677
0.00211104
0.0021624
0.00221081
0.00225624
0.0022987
0.00233819
0.00237475
0.00240841
0.00243923
0.00246727
0.00249258
0.00251523
0.00253529
0.00255284
0.00256794
0.00258066
0.00259107
0.00259923
0.00260521
0.00260913
0.00261117
0.00261142
0.00261
0.00260696
0.00260239
0.00259635
0.00258889
0.00258008
0.00256996
0.00255858
0.002546
0.00253225
0.00251738
0.00250143
0.00248444
0.00246646
0.00244752
0.00242766
0.00240691
0.00238532
0.00236292
0.00233975
0.00231585
0.00229126
0.00226601
0.00224015
0.00221371
0.00218673
0.00215925
0.00213129
0.0021029
0.00207411
0.00204494
0.00201542
0.00198581
0.00195633
0.00192696
0.00189774
0.00186873
0.00184002
0.00181175
0.00178403
0.00175705
0.00173096
0.00170595
0.00168218
0.00165981
0.00163898
0.00161978
0.00160226
0.00158643
0.00157221
0.00155951
0.00154815
0.00153792
0.00152857
0.00151982
0.00151136
0.0015029
0.00149413
0.00148473
0.00147441
0.00146288
0.00144981
0.00143488
0.00141768
0.00139769
0.00137425
0.00134695
0.00131535
0.00127902
0.00123751
0.00119045
0.00113761
0.00107907
0.00101534
0.000947637
0.000877991
0.000809227
0.000744416
0.000685898
0.000634353
0.000588657
0.000546765
0.000507102
0.000469736
0.000436806
0.000411991
0.000399175
0.000400821
0.000416713
0.000443637
0.000476335
0.000509368
0.0005388
0.000562786
0.00058115
0.000594611
0.000604159
0.000610716
0.000615014
0.000617636
0.000618979
0.000619334
0.000618916
0.000617894
0.000616402
0.000614554
0.000612442
0.000610148
0.000607737
0.000605264
0.000602775
0.000600303
0.000597875
0.000595509
0.000593215
0.000590999
0.00058886
0.000586788
0.000584767
0.000582781
0.000580809
0.000578821
0.000576787
0.000574694
0.00057267
9.32572e-05
0.000271824
0.000434565
0.000559435
0.000651605
0.000718434
0.000766335
0.000800714
0.000826239
0.000847019
0.000866662
0.000888218
0.000914083
0.000945913