/*--------------------------------*- C++ -*----------------------------------*\
  =========                 |
  \\      /  F ield         | OpenFOAM: The Open Source CFD Toolbox
   \\    /   O peration     | Website:  https://openfoam.org
    \\  /    A nd           | Version:  9
     \\/     M anipulation  |
\*---------------------------------------------------------------------------*/
FoamFile
{
    format      ascii;
    class       volScalarField;
    location    "0.09";
    object      p;
}
// * * * * * * * * * * * * * * * * * * * * * * * * * * * * * * * * * * * * * //

dimensions      [0 2 -2 0 0 0 0];

internalField   nonuniform List<scalar> 
12225
(
0.749963
0.431143
0.335221
0.321569
0.314854
0.311847
0.314115
0.319645
0.32719
0.336566
0.347715
0.360468
0.374602
0.389816
0.405731
0.421628
0.437056
0.449738
0.342338
0.346457
0.330977
0.324224
0.317847
0.314579
0.316502
0.321833
0.329332
0.338767
0.350047
0.362991
0.377377
0.392913
0.409276
0.425895
0.443126
0.462818
0.303931
0.353708
0.337225
0.32732
0.32127
0.31817
0.319782
0.324823
0.332196
0.341636
0.353015
0.366144
0.380812
0.396765
0.413781
0.431483
0.450538
0.472835
0.337002
0.360789
0.338845
0.328379
0.323248
0.320649
0.322203
0.327067
0.334318
0.343698
0.355067
0.36824
0.383031
0.399226
0.416677
0.435097
0.454942
0.476292
0.344792
0.35479
0.336372
0.327821
0.323745
0.321797
0.323478
0.328252
0.335376
0.344614
0.355828
0.368846
0.383494
0.399578
0.416943
0.435242
0.454499
0.473469
0.338986
0.345897
0.332974
0.326346
0.323174
0.321891
0.323758
0.328453
0.335401
0.344392
0.355292
0.367932
0.382137
0.397699
0.41439
0.431726
0.449328
0.465304
0.332913
0.338517
0.329471
0.324211
0.321787
0.3211
0.323125
0.327699
0.334387
0.343003
0.353408
0.365433
0.378879
0.393497
0.408959
0.424637
0.439858
0.452479
0.328196
0.33226
0.325723
0.321515
0.319703
0.319491
0.321601
0.325979
0.3323
0.340392
0.350111
0.361271
0.373642
0.386916
0.400664
0.414152
0.426527
0.435652
0.32374
0.326403
0.321664
0.318331
0.316992
0.317109
0.319206
0.323288
0.329116
0.336525
0.345358
0.355407
0.366403
0.37798
0.389628
0.400554
0.409836
0.415504
0.319084
0.320732
0.317327
0.314705
0.313698
0.31399
0.315955
0.319628
0.324825
0.331386
0.339137
0.347843
0.3572
0.366794
0.376062
0.384207
0.390322
0.392685
0.314202
0.315184
0.312734
0.310659
0.309852
0.310171
0.311881
0.315022
0.319449
0.325002
0.331488
0.338651
0.346155
0.353556
0.360274
0.36555
0.368553
0.367811
0.309526
0.310119
0.308272
0.306564
0.305831
0.306052
0.307416
0.30996
0.313561
0.318056
0.323241
0.328844
0.334512
0.339795
0.344126
0.346806
0.347106
0.343753
0.304752
0.305062
0.303649
0.302177
0.301416
0.301429
0.302351
0.304207
0.306889
0.310232
0.314023
0.31798
0.321747
0.324882
0.326852
0.327035
0.324793
0.319101
0.299104
0.299199
0.298094
0.296761
0.295859
0.295516
0.29582
0.296782
0.298304
0.300221
0.302316
0.304306
0.305845
0.306519
0.305851
0.303318
0.298395
0.290314
0.292439
0.292388
0.291437
0.290108
0.288924
0.288043
0.287523
0.287358
0.287458
0.287664
0.287762
0.287486
0.286518
0.284492
0.281013
0.275667
0.268055
0.25764
0.284641
0.284487
0.283526
0.282025
0.280381
0.278752
0.277179
0.275645
0.274065
0.272296
0.270145
0.267376
0.263718
0.258878
0.25255
0.244438
0.234262
0.221672
0.27566
0.275409
0.274278
0.272395
0.270075
0.267469
0.26461
0.261476
0.257998
0.254057
0.249494
0.244123
0.237736
0.23012
0.221065
0.21038
0.19789
0.183394
0.265647
0.265274
0.263811
0.261312
0.258074
0.254252
0.249885
0.244964
0.239442
0.233237
0.226237
0.218314
0.20933
0.199151
0.187654
0.174737
0.160303
0.144269
0.255243
0.254701
0.252724
0.24934
0.244901
0.239606
0.233517
0.226652
0.219002
0.210533
0.201185
0.190891
0.17958
0.167187
0.153663
0.138968
0.123066
0.105954
0.248118
0.247441
0.244888
0.240553
0.234944
0.228324
0.220784
0.212375
0.203124
0.193027
0.182061
0.170193
0.157393
0.143635
0.128904
0.113198
0.0965088
0.0788677
0.244597
0.243859
0.240757
0.235522
0.228893
0.221197
0.212542
0.203009
0.192652
0.181483
0.169493
0.156669
0.142998
0.128474
0.113098
0.0968831
0.0798329
0.0619906
0.243384
0.242704
0.238983
0.232761
0.22514
0.216474
0.206869
0.196442
0.185258
0.17333
0.160649
0.147209
0.133006
0.11804
0.102323
0.0858719
0.0686986
0.0508532
0.24381
0.243486
0.239051
0.231735
0.223164
0.213619
0.203196
0.192061
0.180277
0.16783
0.154707
0.1409
0.126403
0.111221
0.0953631
0.0788518
0.061701
0.0439631
0.24539
0.245889
0.240505
0.231999
0.222558
0.212191
0.201039
0.189346
0.177137
0.164356
0.150975
0.13698
0.12236
0.107115
0.0912553
0.0748019
0.0577697
0.0402123
0.248348
0.250325
0.243138
0.233208
0.222973
0.211782
0.199944
0.187811
0.175319
0.162347
0.14885
0.134804
0.120189
0.104997
0.0892362
0.0729272
0.0560844
0.0387619
0.252259
0.25803
0.247258
0.235174
0.224045
0.211957
0.199459
0.186992
0.17434
0.161302
0.147813
0.133834
0.119329
0.104283
0.0887037
0.0726098
0.0560141
0.0389727
0.247077
0.266386
0.252213
0.237531
0.225193
0.212108
0.199062
0.18642
0.173755
0.160787
0.147437
0.133643
0.119348
0.104533
0.0892078
0.0733891
0.0570883
0.0403629
0.213626
0.262492
0.252956
0.238746
0.225375
0.211342
0.198062
0.185558
0.173122
0.160426
0.147365
0.133902
0.119929
0.105432
0.090428
0.0749351
0.0589657
0.0425742
0.225911
0.248836
0.246027
0.237356
0.224025
0.209322
0.196195
0.18419
0.172256
0.160015
0.147386
0.134367
0.120798
0.106677
0.0920312
0.0768871
0.0612629
0.0452136
0.624126
0.35563
0.260327
0.239255
0.223995
0.208605
0.195547
0.183845
0.172214
0.160268
0.147997
0.135214
0.121873
0.107977
0.0935515
0.0786244
0.0632212
0.0474082
-0.40681
-0.393362
-0.388661
-0.396142
-0.409056
-0.423713
-0.438743
-0.453044
-0.465675
-0.47695
-0.48667
-0.492242
-0.497211
-0.504288
-0.511414
-0.524692
-0.538889
-0.545074
-0.554617
-0.577585
-0.615997
-0.642586
-0.663149
-0.705345
-0.771869
-0.819867
-0.859406
-0.922862
-0.997968
-1.08376
-1.17936
-1.28336
-1.39387
-1.50876
-1.62579
-1.74278
-1.85774
-1.96889
-2.07475
-2.17411
-2.26603
-2.34978
-2.42485
-2.49086
-2.54756
-2.59479
-2.63247
-2.66057
-2.67929
-2.68893
-2.68964
-2.68085
-2.66151
-2.63087
-2.58975
-2.53857
-2.47762
-2.40716
-2.3274
-2.23861
-2.14108
-2.03515
-1.92123
-1.79979
-1.67136
-1.53654
-1.396
-1.25049
-1.10081
-0.947846
-0.792527
-0.635849
-0.478852
-0.322616
-0.168248
-0.0168731
0.130385
0.272416
0.408136
0.536511
0.656565
0.767403
0.868227
0.958343
1.03718
1.10428
1.15932
1.20218
1.23308
1.25257
1.26071
1.25751
1.24351
1.21941
1.18604
1.14426
1.09498
1.03916
0.977725
0.911632
0.841786
0.769062
0.694284
0.618226
0.541605
0.465089
0.389295
0.314803
0.242165
0.171911
0.104565
0.0406562
-0.0192721
-0.0746439
-0.124814
-0.169105
-0.206638
-0.235597
-0.25797
-0.277669
-0.302713
-0.303722
-0.279544
-0.245599
-0.195661
-0.143131
-0.0889807
-0.0326121
0.0233054
0.0757826
0.122496
0.161605
0.191769
0.212503
0.224625
0.230175
0.231681
0.231205
0.229772
0.227615
0.224781
0.221414
0.217778
0.214171
0.210851
0.208002
0.205727
0.204061
0.202987
0.202451
0.202379
0.202697
0.203287
0.204082
0.20501
0.206005
0.207011
0.207983
0.208887
0.209699
0.210402
0.210988
0.211456
0.211807
0.212047
0.212186
0.212234
0.212204
0.21211
0.211964
0.211784
0.211583
0.211376
0.211189
0.211048
0.210989
0.211079
0.211384
0.21229
0.213435
-0.415476
-0.410093
-0.409968
-0.418104
-0.430635
-0.444017
-0.456554
-0.467486
-0.47655
-0.483178
-0.48763
-0.489708
-0.489218
-0.488754
-0.491279
-0.494463
-0.498017
-0.504713
-0.51809
-0.538013
-0.55177
-0.57063
-0.605494
-0.647707
-0.676331
-0.719613
-0.793362
-0.8739
-0.962684
-1.0615
-1.16952
-1.28496
-1.40555
-1.52881
-1.65239
-1.77414
-1.89224
-2.00523
-2.11194
-2.21149
-2.30323
-2.38669
-2.46151
-2.52744
-2.58429
-2.63188
-2.67007
-2.69869
-2.71755
-2.72642
-2.72511
-2.71375
-2.69291
-2.66351
-2.62492
-2.57692
-2.51951
-2.45279
-2.37692
-2.29213
-2.19868
-2.09689
-1.98716
-1.86993
-1.7457
-1.61507
-1.47867
-1.33721
-1.19149
-1.04234
-0.890672
-0.737443
-0.583659
-0.430368
-0.278642
-0.129571
0.0157497
0.156239
0.290842
0.418544
0.538392
0.649506
0.751098
0.842485
0.9231
0.992514
1.05046
1.09681
1.13123
1.15337
1.16372
1.16314
1.15215
1.1314
1.10163
1.06363
1.01827
0.96644
0.909041
0.84697
0.781101
0.712278
0.641301
0.568922
0.495847
0.422731
0.35019
0.278803
0.209123
0.141688
0.0770283
0.0156812
-0.0418015
-0.0948384
-0.142815
-0.185109
-0.221182
-0.251107
-0.272308
-0.28164
-0.269323
-0.252609
-0.233561
-0.205013
-0.171646
-0.125722
-0.0707407
-0.0114168
0.0475094
0.101034
0.145482
0.179299
0.202827
0.217664
0.225986
0.230041
0.23166
0.231889
0.231098
0.229348
0.226694
0.223341
0.219602
0.215813
0.212263
0.209163
0.206639
0.204738
0.203451
0.202728
0.202496
0.202657
0.203145
0.20386
0.204727
0.20568
0.206659
0.207617
0.208517
0.209334
0.210048
0.210651
0.211137
0.21151
0.211773
0.211934
0.212005
0.211998
0.211925
0.2118
0.211638
0.21146
0.21128
0.211117
0.211
0.210964
0.21108
0.211389
0.212272
0.213111
-0.425809
-0.426431
-0.429606
-0.437714
-0.448578
-0.459564
-0.46917
-0.476624
-0.481501
-0.48351
-0.48265
-0.47944
-0.475504
-0.47233
-0.470297
-0.470609
-0.472192
-0.477384
-0.489323
-0.507822
-0.530672
-0.560045
-0.602303
-0.65391
-0.711024
-0.777351
-0.860194
-0.953425
-1.05467
-1.16219
-1.27433
-1.38945
-1.50596
-1.62238
-1.73733
-1.8496
-1.95815
-2.06204
-2.1605
-2.25289
-2.33864
-2.4173
-2.48846
-2.55182
-2.60708
-2.65401
-2.6924
-2.72207
-2.74283
-2.7544
-2.7565
-2.74911
-2.73232
-2.70638
-2.67124
-2.62686
-2.57327
-2.51054
-2.43882
-2.35829
-2.2692
-2.17185
-2.06659
-1.95387
-1.83415
-1.70801
-1.57605
-1.43896
-1.2975
-1.15248
-1.00478
-0.855322
-0.705087
-0.555087
-0.406367
-0.259987
-0.117014
0.0214957
0.154509
0.281033
0.400129
0.510932
0.612665
0.704651
0.786331
0.857282
0.917238
0.966052
1.00352
1.02949
1.04427
1.04842
1.04237
1.02669
1.00204
0.969205
0.928991
0.882256
0.829869
0.772699
0.711598
0.647388
0.580853
0.512736
0.443733
0.374498
0.305644
0.237754
0.171388
0.107088
0.0453963
-0.0131421
-0.0679673
-0.118495
-0.164117
-0.204218
-0.238133
-0.265155
-0.283462
-0.2917
-0.286339
-0.275501
-0.260352
-0.235145
-0.198349
-0.148216
-0.0899847
-0.0279305
0.0340702
0.0912742
0.139603
0.176905
0.20312
0.219766
0.22916
0.233699
0.235348
0.235351
0.234255
0.232192
0.229237
0.225592
0.221567
0.217495
0.213667
0.210299
0.207521
0.205387
0.203891
0.202985
0.202595
0.202631
0.203012
0.203645
0.204452
0.205362
0.206313
0.207257
0.208154
0.208975
0.209701
0.210319
0.210825
0.211218
0.211503
0.211688
0.211782
0.211797
0.211746
0.211642
0.211502
0.211342
0.211177
0.211031
0.210932
0.210911
0.211034
0.211309
0.212094
0.212441
-0.416441
-0.424763
-0.432323
-0.4414
-0.451214
-0.460285
-0.46759
-0.472537
-0.474801
-0.474384
-0.471648
-0.467349
-0.462757
-0.459252
-0.457647
-0.459176
-0.464633
-0.475776
-0.494642
-0.522206
-0.559027
-0.605844
-0.663784
-0.731253
-0.806494
-0.888922
-0.979128
-1.07566
-1.17707
-1.2821
-1.38962
-1.49857
-1.60794
-1.71676
-1.82409
-1.92905
-2.03082
-2.12862
-2.22177
-2.30963
-2.39166
-2.46735
-2.53626
-2.59801
-2.65224
-2.69865
-2.73695
-2.76692
-2.78833
-2.80099
-2.80474
-2.79951
-2.78531
-2.76208
-2.72978
-2.68837
-2.63786
-2.57833
-2.50989
-2.43269
-2.34696
-2.25297
-2.15108
-2.04166
-1.9252
-1.80221
-1.6733
-1.53913
-1.40043
-1.25799
-1.11268
-0.965385
-0.817076
-0.668748
-0.52143
-0.37617
-0.234023
-0.0960392
0.0367544
0.163366
0.282858
0.39436
0.497088
0.590353
0.673581
0.746321
0.808255
0.859182
0.898992
0.927728
0.945633
0.953045
0.950385
0.938196
0.917135
0.887939
0.851402
0.808356
0.759652
0.706139
0.648649
0.587989
0.524927
0.46019
0.394462
0.328387
0.26257
0.197587
0.133993
0.0723301
0.0131385
-0.0430353
-0.095631
-0.144066
-0.187733
-0.225995
-0.258186
-0.283596
-0.301136
-0.309716
-0.308757
-0.300313
-0.284409
-0.258392
-0.221017
-0.173001
-0.117243
-0.0565132
0.00601228
0.0660069
0.119095
0.162186
0.194099
0.215478
0.228236
0.234812
0.237488
0.237897
0.236869
0.234691
0.231511
0.227582
0.223258
0.2189
0.214811
0.211206
0.208216
0.205894
0.204231
0.203181
0.202669
0.202606
0.202905
0.203475
0.204235
0.20511
0.206039
0.20697
0.207862
0.208684
0.209416
0.210044
0.210563
0.21097
0.211271
0.211472
0.211582
0.211612
0.211576
0.211487
0.21136
0.21121
0.211054
0.210915
0.210818
0.210789
0.210883
0.211078
0.211675
0.211581
-0.373301
-0.390438
-0.404029
-0.416243
-0.427266
-0.436555
-0.44362
-0.448233
-0.450451
-0.450666
-0.449564
-0.448098
-0.447441
-0.44888
-0.453656
-0.463097
-0.478552
-0.501512
-0.533277
-0.574538
-0.625439
-0.685801
-0.755038
-0.831994
-0.915424
-1.00436
-1.09804
-1.19546
-1.29575
-1.39815
-1.50192
-1.60629
-1.71053
-1.8139
-1.91566
-2.01513
-2.11164
-2.20454
-2.29324
-2.37719
-2.45586
-2.52877
-2.59549
-2.6556
-2.70873
-2.75455
-2.79273
-2.823
-2.8451
-2.85881
-2.86394
-2.86037
-2.84801
-2.82677
-2.79657
-2.75737
-2.70916
-2.652
-2.58597
-2.51121
-2.42791
-2.33634
-2.23681
-2.12968
-2.01542
-1.89451
-1.76755
-1.63517
-1.4981
-1.3571
-1.21301
-1.06674
-0.919219
-0.77145
-0.624452
-0.479271
-0.336964
-0.198582
-0.065158
0.0623073
0.182865
0.295633
0.399809
0.494689
0.579675
0.65429
0.718175
0.771092
0.812932
0.843774
0.863865
0.873534
0.873213
0.863449
0.844891
0.818266
0.78436
0.743993
0.698005
0.647232
0.592494
0.534583
0.474251
0.412209
0.349126
0.285628
0.222307
0.159724
0.0984243
0.0389398
-0.018197
-0.0724456
-0.123251
-0.170036
-0.212201
-0.249117
-0.280138
-0.304598
-0.321683
-0.330566
-0.330907
-0.323157
-0.306853
-0.281133
-0.245777
-0.200963
-0.148139
-0.0893634
-0.0272963
0.0343363
0.0912871
0.139892
0.177964
0.205144
0.222665
0.232699
0.237586
0.239207
0.238709
0.236656
0.233374
0.229224
0.224631
0.220009
0.215684
0.211878
0.208718
0.20625
0.204466
0.203313
0.202715
0.202583
0.202825
0.203351
0.204077
0.204927
0.205839
0.206758
0.207644
0.208465
0.209199
0.209832
0.210356
0.210772
0.211081
0.21129
0.211409
0.211449
0.211421
0.211339
0.211217
0.211071
0.210916
0.210774
0.210665
0.210609
0.210649
0.210739
0.21113
0.210686
-0.300573
-0.325655
-0.348239
-0.366013
-0.380139
-0.391421
-0.40011
-0.406492
-0.411108
-0.41474
-0.41838
-0.423178
-0.430389
-0.441302
-0.457189
-0.479278
-0.508671
-0.54625
-0.592518
-0.647476
-0.710709
-0.781521
-0.859007
-0.942135
-1.02997
-1.12171
-1.21664
-1.314
-1.41311
-1.51335
-1.61415
-1.71494
-1.81516
-1.91425
-2.01166
-2.10682
-2.19919
-2.28823
-2.3734
-2.4542
-2.53014
-2.60077
-2.66563
-2.72432
-2.77645
-2.82166
-2.85962
-2.89
-2.91255
-2.92699
-2.93311
-2.93075
-2.91975
-2.90001
-2.87141
-2.83391
-2.78747
-2.73212
-2.66792
-2.59499
-2.51351
-2.4237
-2.32586
-2.22034
-2.10757
-1.98803
-1.86228
-1.73096
-1.59476
-1.45444
-1.31084
-1.16484
-1.01739
-0.869467
-0.722108
-0.576358
-0.433283
-0.293944
-0.159388
-0.0306307
0.0913625
0.205689
0.311529
0.408153
0.494945
0.571404
0.637153
0.691932
0.735637
0.768349
0.790321
0.801891
0.803504
0.795715
0.779177
0.754621
0.722833
0.684635
0.640862
0.592346
0.539899
0.484299
0.426288
0.36656
0.305763
0.244508
0.183366
0.122882
0.0635838
0.00599082
-0.0493764
-0.101988
-0.151296
-0.196734
-0.237712
-0.273617
-0.303822
-0.327689
-0.344521
-0.353659
-0.354716
-0.347623
-0.332117
-0.307884
-0.274675
-0.232476
-0.182231
-0.12553
-0.0644973
-0.00215478
0.0577185
0.111318
0.155711
0.189492
0.212942
0.227631
0.235717
0.239236
0.23969
0.238005
0.234774
0.230504
0.225712
0.220872
0.216347
0.212374
0.209078
0.206501
0.204628
0.203403
0.202747
0.202568
0.202772
0.203268
0.20397
0.204802
0.2057
0.206609
0.207488
0.208305
0.209037
0.20967
0.210196
0.210613
0.210925
0.211138
0.21126
0.211303
0.211277
0.211197
0.211075
0.210926
0.210766
0.210611
0.210479
0.210385
0.210357
0.210335
0.210533
0.209811
-0.211183
-0.244708
-0.276731
-0.300891
-0.31917
-0.33373
-0.345605
-0.355616
-0.364742
-0.374132
-0.385047
-0.398786
-0.416609
-0.439677
-0.468994
-0.50536
-0.549308
-0.601054
-0.660462
-0.727078
-0.800215
-0.879068
-0.962783
-1.05051
-1.14148
-1.23506
-1.33066
-1.42776
-1.52584
-1.62443
-1.72307
-1.82131
-1.91871
-2.01481
-2.10916
-2.20127
-2.29068
-2.37691
-2.45948
-2.53793
-2.6118
-2.68066
-2.74407
-2.80162
-2.85292
-2.89761
-2.93533
-2.96576
-2.98861
-3.00359
-3.01046
-3.00902
-2.9991
-2.98054
-2.95323
-2.91708
-2.87205
-2.81814
-2.75538
-2.68388
-2.60379
-2.51531
-2.41871
-2.31433
-2.20258
-2.08392
-1.95889
-1.82811
-1.69226
-1.5521
-1.40846
-1.26221
-1.1143
-0.965718
-0.817501
-0.670706
-0.526411
-0.385694
-0.249622
-0.119229
0.00449511
0.120625
0.228316
0.326818
0.41549
0.493814
0.561398
0.617976
0.66345
0.697915
0.721619
0.734902
0.738218
0.732137
0.717325
0.694526
0.664534
0.628179
0.586302
0.539732
0.489279
0.435712
0.37976
0.322099
0.26336
0.204131
0.144962
0.0863785
0.0288879
-0.0270072
-0.0808004
-0.131973
-0.17999
-0.224292
-0.264301
-0.299419
-0.329034
-0.352533
-0.369287
-0.37872
-0.380434
-0.374211
-0.359828
-0.337046
-0.305651
-0.265688
-0.21784
-0.163284
-0.103644
-0.041281
0.0206195
0.0784205
0.128754
0.169305
0.1993
0.21948
0.231597
0.237707
0.239607
0.238613
0.235637
0.23139
0.226501
0.221515
0.216842
0.212741
0.209343
0.206686
0.204751
0.203478
0.202783
0.202573
0.202752
0.203228
0.203912
0.20473
0.205616
0.206515
0.207386
0.208196
0.208923
0.209551
0.210073
0.210488
0.210798
0.211009
0.21113
0.21117
0.211142
0.211059
0.210932
0.210775
0.210603
0.210428
0.210267
0.210126
0.210023
0.20989
0.209913
0.208972
-0.122213
-0.162495
-0.202872
-0.233148
-0.255951
-0.274626
-0.290848
-0.305864
-0.321008
-0.337707
-0.357387
-0.38137
-0.410789
-0.446517
-0.489138
-0.538932
-0.595883
-0.659708
-0.729905
-0.805811
-0.886683
-0.971758
-1.0603
-1.15164
-1.24518
-1.3404
-1.43686
-1.53413
-1.63184
-1.7296
-1.82705
-1.92381
-2.0195
-2.11374
-2.20612
-2.29624
-2.38368
-2.468
-2.54878
-2.6256
-2.69802
-2.76562
-2.82799
-2.88474
-2.93546
-2.97981
-3.0174
-3.04793
-3.07107
-3.08653
-3.09404
-3.09339
-3.08438
-3.06684
-3.04063
-3.00563
-2.9618
-2.90909
-2.84753
-2.7772
-2.69822
-2.61079
-2.51515
-2.41161
-2.30055
-2.18244
-2.05779
-1.92721
-1.79136
-1.65101
-1.50695
-1.36008
-1.21134
-1.06173
-0.912292
-0.764095
-0.618236
-0.475815
-0.337919
-0.205609
-0.0799012
0.0382529
0.147981
0.248509
0.339174
0.419439
0.488895
0.547276
0.594492
0.630654
0.655998
0.670866
0.67573
0.671177
0.657893
0.636637
0.608223
0.573492
0.533293
0.488462
0.439805
0.388086
0.334019
0.278265
0.221433
0.164087
0.106755
0.0499369
-0.00588008
-0.0602124
-0.11257
-0.162446
-0.209317
-0.252633
-0.291826
-0.326309
-0.355486
-0.37876
-0.395546
-0.405309
-0.40765
-0.402279
-0.388947
-0.367441
-0.337631
-0.299602
-0.25385
-0.201244
-0.143024
-0.0810167
-0.0178279
0.0432517
0.0987219
0.145618
0.182211
0.208322
0.225105
0.234446
0.23832
0.23839
0.235919
0.231863
0.226999
0.221956
0.217199
0.213015
0.209548
0.206839
0.204864
0.203559
0.20284
0.20261
0.202773
0.203234
0.203906
0.204711
0.205585
0.206473
0.207333
0.208133
0.20885
0.209469
0.209984
0.210391
0.210694
0.210899
0.211014
0.211048
0.211014
0.210923
0.210786
0.210617
0.210428
0.210229
0.210032
0.209839
0.209659
0.209419
0.209285
0.208175
-0.0469524
-0.0918063
-0.138295
-0.173569
-0.200697
-0.223766
-0.244883
-0.265584
-0.287425
-0.311963
-0.340646
-0.374699
-0.415034
-0.462196
-0.516365
-0.577403
-0.644914
-0.718326
-0.79696
-0.880091
-0.966999
-1.05701
-1.1495
-1.24393
-1.33982
-1.43676
-1.53438
-1.63234
-1.73032
-1.828
-1.92508
-2.02122
-2.1161
-2.20937
-2.30068
-2.38967
-2.47595
-2.55914
-2.63885
-2.71466
-2.78619
-2.85304
-2.9148
-2.9711
-3.02154
-3.06576
-3.10342
-3.13416
-3.15766
-3.17364
-3.18181
-3.18192
-3.17378
-3.15718
-3.13197
-3.09803
-3.05527
-3.00364
-2.94315
-2.87385
-2.79584
-2.70929
-2.61443
-2.51156
-2.40102
-2.28327
-2.1588
-2.02821
-1.89216
-1.75138
-1.60669
-1.45897
-1.30916
-1.15828
-1.00738
-0.857544
-0.709888
-0.565533
-0.425596
-0.291164
-0.163282
-0.0429309
0.068988
0.171674
0.264441
0.346731
0.418121
0.478345
0.527321
0.565169
0.592111
0.6085
0.614828
0.611702
0.59983
0.579995
0.553029
0.519792
0.481145
0.43793
0.390955
0.340975
0.288694
0.234753
0.179739
0.124191
0.0686098
0.0134719
-0.0407591
-0.0936193
-0.144634
-0.193312
-0.239136
-0.281568
-0.320047
-0.353994
-0.382823
-0.405954
-0.422822
-0.432916
-0.435827
-0.431222
-0.418834
-0.398471
-0.370042
-0.33363
-0.289606
-0.238628
-0.181659
-0.120129
-0.056152
0.00739477
0.0670982
0.11962
0.16247
0.194582
0.2164
0.22947
0.235798
0.237313
0.235611
0.231928
0.227217
0.222213
0.21744
0.213223
0.209724
0.206988
0.204991
0.20367
0.202936
0.202694
0.202845
0.203294
0.203954
0.204746
0.205607
0.206481
0.207327
0.208113
0.208816
0.209422
0.209923
0.210319
0.210611
0.210805
0.21091
0.210934
0.21089
0.210787
0.210638
0.210453
0.210242
0.210015
0.209778
0.20953
0.209274
0.208933
0.208659
0.207421
0.0067288
-0.0407855
-0.0905395
-0.129076
-0.159744
-0.186877
-0.212764
-0.239072
-0.267423
-0.299361
-0.336236
-0.379104
-0.42864
-0.485114
-0.548418
-0.618148
-0.693701
-0.774366
-0.859398
-0.948071
-1.03971
-1.13371
-1.22954
-1.32673
-1.42489
-1.52365
-1.62271
-1.72176
-1.82052
-1.91872
-2.01607
-2.11228
-2.20706
-2.3001
-2.39106
-2.47963
-2.56545
-2.64816
-2.72739
-2.80277
-2.87393
-2.94048
-3.00205
-3.05825
-3.10871
-3.15308
-3.191
-3.22212
-3.24614
-3.26273
-3.27162
-3.27254
-3.26528
-3.24963
-3.22542
-3.19251
-3.15079
-3.1002
-3.04072
-2.97239
-2.89529
-2.80957
-2.71543
-2.61314
-2.50305
-2.38557
-2.26121
-2.13052
-1.99416
-1.85287
-1.70744
-1.55876
-1.40779
-1.25552
-1.10304
-0.951438
-0.80186
-0.65545
-0.513349
-0.376676
-0.246505
-0.123851
-0.00964217
0.0952917
0.190241
0.274625
0.348004
0.410114
0.460895
0.500443
0.528982
0.546878
0.554642
0.552907
0.542404
0.52394
0.49837
0.466574
0.429427
0.387779
0.342438
0.294155
0.243618
0.19145
0.138213
0.0844208
0.0305462
-0.0229602
-0.0756579
-0.127102
-0.176835
-0.224375
-0.269216
-0.310827
-0.348652
-0.382118
-0.410648
-0.433669
-0.450629
-0.461023
-0.464433
-0.4605
-0.448945
-0.429578
-0.402314
-0.367219
-0.324572
-0.274887
-0.218932
-0.15785
-0.0933692
-0.0279721
0.0351389
0.0924744
0.141003
0.178887
0.205841
0.222951
0.232111
0.235414
0.234743
0.231615
0.227185
0.222313
0.217593
0.213393
0.209895
0.207156
0.205155
0.203827
0.203087
0.202836
0.202977
0.203414
0.204059
0.204837
0.205681
0.206537
0.207365
0.208132
0.208817
0.209405
0.209889
0.210268
0.210545
0.210725
0.210816
0.210827
0.210769
0.210652
0.210486
0.210281
0.210046
0.209788
0.209509
0.209206
0.208875
0.20844
0.208043
0.20671
0.0360783
-0.0118835
-0.0620097
-0.101916
-0.134976
-0.165359
-0.195314
-0.226504
-0.260491
-0.298705
-0.342334
-0.392243
-0.448906
-0.512402
-0.582454
-0.658529
-0.739932
-0.825905
-0.915692
-1.00859
-1.10395
-1.20123
-1.29993
-1.39964
-1.49998
-1.60065
-1.70134
-1.80178
-1.90171
-2.00087
-2.09899
-2.19582
-2.29106
-2.38443
-2.47564
-2.56436
-2.65027
-2.73305
-2.81233
-2.88777
-2.95901
-3.02568
-3.08742
-3.14387
-3.19465
-3.23942
-3.27783
-3.30953
-3.33421
-3.35156
-3.36127
-3.36309
-3.35678
-3.34213
-3.31896
-3.28711
-3.24645
-3.19692
-3.13848
-3.07113
-2.99494
-2.91005
-2.81663
-2.71494
-2.6053
-2.48812
-2.36386
-2.23309
-2.09645
-1.95464
-1.80849
-1.65886
-1.50671
-1.35306
-1.19899
-1.04562
-0.894103
-0.745619
-0.601334
-0.462395
-0.329909
-0.204921
-0.0883906
0.018825
0.115989
0.202494
0.277896
0.341936
0.394557
0.435831
0.465986
0.485407
0.494624
0.494293
0.48517
0.468088
0.443924
0.413579
0.377941
0.337869
0.294171
0.247592
0.198803
0.148408
0.0969449
0.0448979
-0.00728632
-0.0591832
-0.110375
-0.160434
-0.208918
-0.255356
-0.299249
-0.340071
-0.37727
-0.410279
-0.438523
-0.461434
-0.478464
-0.489107
-0.492936
-0.489572
-0.478724
-0.460191
-0.433879
-0.399827
-0.358249
-0.309552
-0.254361
-0.193621
-0.128771
-0.0619601
0.00386479
0.0652194
0.118732
0.161951
0.193909
0.215175
0.227417
0.232783
0.233376
0.230973
0.226944
0.222289
0.217686
0.213548
0.210085
0.207365
0.205373
0.204048
0.203305
0.203047
0.203176
0.203599
0.204227
0.204986
0.205808
0.206642
0.207446
0.20819
0.208851
0.209416
0.209878
0.210237
0.210494
0.210656
0.210729
0.210724
0.21065
0.210515
0.210331
0.210104
0.209842
0.20955
0.209229
0.208871
0.208469
0.207949
0.207442
0.206042
0.04316
-0.00287335
-0.0508796
-0.0903762
-0.124523
-0.157044
-0.190008
-0.224968
-0.263351
-0.306418
-0.355174
-0.410306
-0.472139
-0.540631
-0.615428
-0.69595
-0.781482
-0.871267
-0.964562
-1.06068
-1.15901
-1.25901
-1.36022
-1.46224
-1.5647
-1.66731
-1.76977
-1.87181
-1.97318
-2.07363
-2.1729
-2.27073
-2.36687
-2.46103
-2.55293
-2.64227
-2.72873
-2.81201
-2.89177
-2.96768
-3.03938
-3.10653
-3.16878
-3.22577
-3.27715
-3.32257
-3.36169
-3.39416
-3.41968
-3.43792
-3.44858
-3.45139
-3.44614
-3.43257
-3.41051
-3.37978
-3.34025
-3.29183
-3.23446
-3.16814
-3.09293
-3.00892
-2.91629
-2.81527
-2.70616
-2.58934
-2.46528
-2.33451
-2.19767
-2.05546
-1.90867
-1.75819
-1.60497
-1.45004
-1.29448
-1.13943
-0.986079
-0.835607
-0.689216
-0.548083
-0.413345
-0.286077
-0.16727
-0.0578089
0.0415374
0.130147
0.207573
0.273565
0.328038
0.371055
0.402852
0.423831
0.434541
0.435659
0.427966
0.412318
0.389616
0.360777
0.326704
0.288262
0.246257
0.201424
0.154421
0.105828
0.0561566
0.00586546
-0.0446263
-0.0949186
-0.144614
-0.193303
-0.240553
-0.285904
-0.328861
-0.368904
-0.405482
-0.438031
-0.465977
-0.488754
-0.505812
-0.51664
-0.5208
-0.517896
-0.507623
-0.489762
-0.464201
-0.430952
-0.390173
-0.342193
-0.287535
-0.227001
-0.161827
-0.0939005
-0.0259167
0.0387367
0.096511
0.144502
0.181153
0.206511
0.221945
0.229557
0.231597
0.230065
0.226544
0.222181
0.217749
0.213714
0.210313
0.207632
0.205662
0.204346
0.203601
0.203335
0.20345
0.203854
0.204461
0.205194
0.20599
0.206795
0.20757
0.208284
0.208916
0.209453
0.209889
0.210223
0.210457
0.210597
0.21065
0.210625
0.210532
0.210378
0.210172
0.209922
0.209632
0.209306
0.208941
0.208529
0.208061
0.207464
0.206861
0.205414
0.0336776
-0.00851299
-0.052426
-0.089964
-0.123919
-0.157411
-0.192231
-0.229763
-0.271258
-0.317789
-0.370187
-0.428986
-0.494397
-0.566313
-0.644351
-0.727929
-0.816351
-0.908879
-1.00479
-1.10342
-1.20416
-1.30648
-1.40992
-1.51407
-1.61858
-1.72314
-1.82744
-1.93122
-2.03422
-2.13619
-2.23688
-2.33603
-2.43338
-2.52867
-2.62161
-2.71191
-2.79928
-2.88342
-2.964
-3.04069
-3.11318
-3.18111
-3.24414
-3.30194
-3.35415
-3.40043
-3.44045
-3.47387
-3.50038
-3.51965
-3.5314
-3.53534
-3.53122
-3.51882
-3.49795
-3.46841
-3.43008
-3.38284
-3.32662
-3.26142
-3.18726
-3.10423
-3.01248
-2.91222
-2.80375
-2.68743
-2.5637
-2.43308
-2.2962
-2.15374
-2.0065
-1.85535
-1.70124
-1.54521
-1.38836
-1.23182
-1.07681
-0.924529
-0.776204
-0.633041
-0.496203
-0.366794
-0.245834
-0.134244
-0.0328125
0.0578342
0.137251
0.205167
0.261469
0.306225
0.33968
0.362247
0.374494
0.377118
0.370923
0.356786
0.335627
0.308379
0.275954
0.23922
0.19898
0.155957
0.110792
0.0640412
0.0161921
-0.0323247
-0.0811149
-0.1298
-0.178002
-0.225324
-0.271345
-0.315609
-0.357629
-0.396885
-0.43283
-0.4649
-0.492521
-0.515124
-0.532156
-0.543097
-0.547496
-0.544942
-0.535113
-0.51777
-0.492778
-0.46012
-0.419909
-0.372415
-0.318086
-0.257624
-0.192127
-0.123285
-0.0535759
0.0137514
0.0750896
0.127228
0.168135
0.19737
0.215966
0.225906
0.229513
0.228966
0.226039
0.222031
0.217815
0.213915
0.210601
0.207973
0.206034
0.204731
0.203986
0.203708
0.203805
0.204185
0.204763
0.205464
0.206226
0.206996
0.207736
0.208414
0.209012
0.209516
0.20992
0.210225
0.210432
0.210547
0.210577
0.21053
0.210415
0.210239
0.210011
0.209736
0.209417
0.209056
0.208649
0.208186
0.207655
0.20699
0.206301
0.204826
0.0150419
-0.0219093
-0.0603295
-0.0947068
-0.127394
-0.160833
-0.196491
-0.235549
-0.279066
-0.327934
-0.382818
-0.444125
-0.51198
-0.586235
-0.666502
-0.752219
-0.842717
-0.937287
-1.03523
-1.13588
-1.23866
-1.34301
-1.44848
-1.55464
-1.66114
-1.76763
-1.87382
-1.97943
-2.08419
-2.18784
-2.29013
-2.3908
-2.48959
-2.58624
-2.68047
-2.77201
-2.86055
-2.9458
-3.02746
-3.1052
-3.17871
-3.24765
-3.31169
-3.3705
-3.42373
-3.47106
-3.51215
-3.54666
-3.57429
-3.59472
-3.60765
-3.6128
-3.60992
-3.59878
-3.57918
-3.55092
-3.51386
-3.46787
-3.41289
-3.34888
-3.27587
-3.19391
-3.10316
-3.0038
-2.89611
-2.78043
-2.6572
-2.52692
-2.39019
-2.2477
-2.10023
-1.94865
-1.79391
-1.63704
-1.47915
-1.32139
-1.16499
-1.01116
-0.861161
-0.716211
-0.577507
-0.446179
-0.323277
-0.209747
-0.106379
-0.0138062
0.0675067
0.137259
0.19533
0.24179
0.276892
0.30106
0.314878
0.319061
0.314431
0.301885
0.282358
0.256793
0.226108
0.19117
0.152773
0.111628
0.0683541
0.0234864
-0.0225138
-0.0692406
-0.116322
-0.1634
-0.210109
-0.256065
-0.300853
-0.344025
-0.385096
-0.423548
-0.458837
-0.490397
-0.517655
-0.540036
-0.556981
-0.56796
-0.572508
-0.570199
-0.560691
-0.543723
-0.519137
-0.486886
-0.447048
-0.399845
-0.345673
-0.285169
-0.219332
-0.149716
-0.0786244
-0.00915652
0.0550976
0.110743
0.155386
0.188163
0.209768
0.222017
0.227244
0.227753
0.225484
0.221881
0.217916
0.214175
0.210964
0.208401
0.206498
0.205211
0.204464
0.204172
0.204245
0.204593
0.205135
0.205797
0.206517
0.207245
0.207942
0.208579
0.209136
0.209602
0.20997
0.210241
0.210418
0.210504
0.210508
0.210437
0.210299
0.2101
0.209848
0.209547
0.209198
0.208803
0.208356
0.207844
0.207256
0.20653
0.205765
0.204275
-0.00483104
-0.0355948
-0.0676387
-0.0980453
-0.128699
-0.161351
-0.197125
-0.236979
-0.281781
-0.332242
-0.38888
-0.451987
-0.521617
-0.597589
-0.679518
-0.766863
-0.858987
-0.955206
-1.05484
-1.15725
-1.26183
-1.36804
-1.4754
-1.58349
-1.69191
-1.80033
-1.90842
-2.0159
-2.12249
-2.22792
-2.33192
-2.43425
-2.53464
-2.63281
-2.72851
-2.82145
-2.91134
-2.9979
-3.08082
-3.15979
-3.2345
-3.30462
-3.36984
-3.42981
-3.48421
-3.53271
-3.57499
-3.61071
-3.63956
-3.66124
-3.67544
-3.68189
-3.68032
-3.67051
-3.65224
-3.62532
-3.5896
-3.54494
-3.49127
-3.42854
-3.35676
-3.27599
-3.18635
-3.08802
-2.98126
-2.8664
-2.74385
-2.6141
-2.47775
-2.33548
-2.18804
-2.0363
-1.88122
-1.72382
-1.56521
-1.40656
-1.24908
-1.09404
-0.942681
-0.796262
-0.655998
-0.523053
-0.398488
-0.28325
-0.178142
-0.0838209
-0.000778919
0.0706707
0.130405
0.178494
0.215196
0.240947
0.256343
0.262116
0.259104
0.248215
0.230397
0.206598
0.177735
0.144669
0.108183
0.0689704
0.0276294
-0.0153285
-0.059466
-0.104399
-0.149776
-0.195251
-0.240473
-0.285065
-0.328618
-0.370687
-0.410791
-0.448417
-0.483019
-0.514034
-0.540884
-0.562991
-0.579787
-0.590729
-0.59534
-0.593175
-0.583873
-0.567151
-0.542827
-0.510827
-0.471198
-0.424129