/*--------------------------------*- C++ -*----------------------------------*\
  =========                 |
  \\      /  F ield         | OpenFOAM: The Open Source CFD Toolbox
   \\    /   O peration     | Website:  https://openfoam.org
    \\  /    A nd           | Version:  9
     \\/     M anipulation  |
\*---------------------------------------------------------------------------*/
FoamFile
{
    format      ascii;
    class       surfaceScalarField;
    location    "0.09";
    object      phi;
}
// * * * * * * * * * * * * * * * * * * * * * * * * * * * * * * * * * * * * * //

dimensions      [0 3 -1 0 0 0 0];

internalField   nonuniform List<scalar> 
24170
(
3.04744e-07
1.40967e-08
2.65637e-07
3.91068e-08
2.35247e-07
3.03899e-08
2.1075e-07
2.4497e-08
1.91785e-07
1.89653e-08
1.77257e-07
1.45282e-08
1.65126e-07
1.21309e-08
1.5398e-07
1.11457e-08
1.4311e-07
1.08702e-08
1.32169e-07
1.09407e-08
1.20964e-07
1.12053e-08
1.09389e-07
1.15754e-08
9.74288e-08
1.19597e-08
8.51917e-08
1.22372e-08
7.29934e-08
1.21983e-08
6.15771e-08
1.14163e-08
5.37729e-08
7.80419e-09
9.08274e-09
4.46901e-08
3.46511e-07
9.31079e-09
3.37341e-07
4.82762e-08
3.22065e-07
4.56665e-08
3.06457e-07
4.0105e-08
2.91621e-07
3.38011e-08
2.77925e-07
2.82243e-08
2.65224e-07
2.48317e-08
2.53031e-07
2.33385e-08
2.40861e-07
2.30403e-08
2.28322e-07
2.34801e-08
2.15107e-07
2.44199e-08
2.0098e-07
2.57022e-08
1.85763e-07
2.71777e-08
1.69346e-07
2.86535e-08
1.51672e-07
2.98728e-08
1.32788e-07
3.02998e-08
1.11694e-07
2.88981e-08
3.65584e-08
8.42186e-08
3.65013e-07
1.05499e-08
3.66489e-07
4.67993e-08
3.60943e-07
5.12125e-08
3.5227e-07
4.87789e-08
3.41821e-07
4.42499e-08
3.30577e-07
3.94679e-08
3.1913e-07
3.62788e-08
3.07555e-07
3.49134e-08
2.95667e-07
3.49281e-08
2.83202e-07
3.59452e-08
2.69891e-07
3.7731e-08
2.55478e-07
4.01151e-08
2.39714e-07
4.29417e-08
2.2234e-07
4.60279e-08
2.03021e-07
4.91911e-08
1.81222e-07
5.20997e-08
1.55332e-07
5.47876e-08
6.67683e-08
1.25122e-07
3.91745e-07
1.13438e-08
3.94497e-07
4.40475e-08
3.9281e-07
5.2899e-08
3.87837e-07
5.37517e-08
3.80453e-07
5.16346e-08
3.71442e-07
4.84784e-08
3.61473e-07
4.62483e-08
3.50841e-07
4.55454e-08
3.39556e-07
4.62129e-08
3.27482e-07
4.80188e-08
3.14421e-07
5.07919e-08
3.00143e-07
5.43934e-08
2.84384e-07
5.87007e-08
2.66822e-07
6.359e-08
2.47021e-07
6.89919e-08
2.2431e-07
7.48107e-08
1.97486e-07
8.16118e-08
9.64531e-08
1.67801e-07
4.20695e-07
1.13616e-08
4.23429e-07
4.13133e-08
4.23474e-07
5.28543e-08
4.20693e-07
5.65321e-08
4.15484e-07
5.68444e-08
4.08328e-07
5.56344e-08
3.99777e-07
5.47986e-08
3.90179e-07
5.51435e-08
3.79644e-07
5.67481e-08
3.68129e-07
5.95335e-08
3.55506e-07
6.34151e-08
3.41588e-07
6.83115e-08
3.26134e-07
7.41552e-08
3.08827e-07
8.0897e-08
2.89252e-07
8.85665e-08
2.66839e-07
9.72239e-08
2.40875e-07
1.07576e-07
1.24443e-07
2.12885e-07
4.51168e-07
1.11027e-08
4.53783e-07
3.86979e-08
4.54722e-07
5.19154e-08
4.53333e-07
5.79209e-08
4.49692e-07
6.0485e-08
4.44037e-07
6.12896e-08
4.36769e-07
6.20665e-08
4.28206e-07
6.37066e-08
4.18496e-07
6.64582e-08
4.07655e-07
7.03741e-08
3.95613e-07
7.5457e-08
3.82234e-07
8.16908e-08
3.67322e-07
8.90672e-08
3.50616e-07
9.7603e-08
3.31793e-07
1.07389e-07
3.10466e-07
1.18551e-07
2.8632e-07
1.31722e-07
1.49951e-07
2.60813e-07
4.83571e-07
1.08034e-08
4.86024e-07
3.62452e-08
4.87415e-07
5.05249e-08
4.86917e-07
5.84181e-08
4.84411e-07
6.29913e-08
4.79957e-07
6.5744e-08
4.73817e-07
6.82063e-08
4.66249e-07
7.12746e-08
4.57402e-07
7.53056e-08
4.47324e-07
8.04517e-08
4.35991e-07
8.67904e-08
4.23317e-07
9.43645e-08
4.09168e-07
1.03216e-07
3.93366e-07
1.13405e-07
3.75712e-07
1.25043e-07
3.56013e-07
1.3825e-07
3.34256e-07
1.53478e-07
1.72485e-07
3.11722e-07
5.18252e-07
1.05097e-08
5.20474e-07
3.40229e-08
5.22047e-07
4.8952e-08
5.22111e-07
5.83543e-08
5.20424e-07
6.4678e-08
5.16928e-07
6.92397e-08
5.11772e-07
7.33629e-08
5.05144e-07
7.79019e-08
4.97178e-07
8.32716e-08
4.87938e-07
8.96917e-08
4.77434e-07
9.72947e-08
4.65631e-07
1.06168e-07
4.52461e-07
1.16386e-07
4.37839e-07
1.28027e-07
4.21696e-07
1.41187e-07
4.04012e-07
1.55934e-07
3.84978e-07
1.72513e-07
1.91795e-07
3.65668e-07
5.55423e-07
1.02209e-08
5.57371e-07
3.20745e-08
5.58963e-07
4.736e-08
5.59368e-07
5.79494e-08
5.58275e-07
6.57705e-08
5.5555e-07
7.19649e-08
5.51253e-07
7.766e-08
5.45513e-07
8.36413e-08
5.38441e-07
9.03443e-08
5.30107e-07
9.8026e-08
5.20549e-07
1.06852e-07
5.0978e-07
1.16937e-07
4.97798e-07
1.28367e-07
4.8461e-07
1.41215e-07
4.70261e-07
1.55536e-07
4.54868e-07
1.71327e-07
4.38739e-07
1.88642e-07
2.07785e-07
4.2275e-07
5.95261e-07
9.93735e-09
5.96931e-07
3.04051e-08
5.98449e-07
4.58412e-08
5.99052e-07
5.73468e-08
5.98397e-07
6.64259e-08
5.96303e-07
7.40583e-08
5.9277e-07
8.11932e-08
5.87878e-07
8.85338e-08
5.81714e-07
9.65083e-08
5.74353e-07
1.05386e-07
5.65859e-07
1.15347e-07
5.56285e-07
1.2651e-07
5.45693e-07
1.38959e-07
5.34168e-07
1.52741e-07
5.21846e-07
1.67858e-07
5.08938e-07
1.84234e-07
4.95805e-07
2.01775e-07
2.20446e-07
4.83144e-07
6.37959e-07
9.65967e-09
6.39368e-07
2.89955e-08
6.40772e-07
4.44372e-08
6.41488e-07
5.66313e-08
6.41168e-07
6.67456e-08
6.39613e-07
7.56129e-08
6.3678e-07
8.40262e-08
6.32713e-07
9.26009e-08
6.27484e-07
1.01738e-07
6.2117e-07
1.117e-07
6.13856e-07
1.22661e-07
6.05636e-07
1.34731e-07
5.9662e-07
1.47974e-07
5.86958e-07
1.62402e-07
5.76852e-07
1.77965e-07
5.66565e-07
1.9452e-07
5.56465e-07
2.11875e-07
2.29812e-07
5.47099e-07
5.7432e-07
9.42356e-09
5.75333e-07
2.79819e-08
5.76432e-07
4.33386e-08
5.77097e-07
5.5966e-08
5.77046e-07
6.67971e-08
5.7611e-07
7.65488e-08
5.74234e-07
8.59023e-08
5.71436e-07
9.53983e-08
5.6777e-07
1.05404e-07
5.63306e-07
1.16164e-07
5.58128e-07
1.27838e-07
5.52341e-07
1.40519e-07
5.4607e-07
1.54245e-07
5.39475e-07
1.68997e-07
5.32757e-07
1.84683e-07
5.26157e-07
2.01121e-07
5.19964e-07
2.18068e-07
2.35219e-07
5.14557e-07
7.00075e-07
9.16434e-09
7.01101e-07
2.69559e-08
7.02273e-07
4.21661e-08
7.03102e-07
5.51378e-08
7.03286e-07
6.66126e-08
7.02639e-07
7.71963e-08
7.01086e-07
8.74547e-08
6.98638e-07
9.78469e-08
6.95348e-07
1.08694e-07
6.91303e-07
1.20209e-07
6.86614e-07
1.32527e-07
6.81421e-07
1.45712e-07
6.75893e-07
1.59773e-07
6.70238e-07
1.74652e-07
6.64701e-07
1.9022e-07
6.59556e-07
2.06266e-07
6.55105e-07
2.22518e-07
2.38644e-07
6.51681e-07
8.5338e-07
8.86932e-09
8.54433e-07
2.59025e-08
8.55721e-07
4.08785e-08
8.56791e-07
5.4067e-08
8.57348e-07
6.60561e-08
8.57195e-07
7.73496e-08
8.56248e-07
8.84018e-08
8.5451e-07
9.95844e-08
8.52043e-07
1.11161e-07
8.4895e-07
1.23302e-07
8.45373e-07
1.36104e-07
8.41486e-07
1.49599e-07
8.37502e-07
1.63757e-07
8.33667e-07
1.78487e-07
8.30255e-07
1.93632e-07
8.27553e-07
2.08968e-07
8.25852e-07
2.24219e-07
2.39075e-07
8.25421e-07
1.04028e-06
8.51131e-09
1.04143e-06
2.4751e-08
1.04296e-06
3.93527e-08
1.04445e-06
5.25715e-08
1.04564e-06
6.48728e-08
1.04632e-06
7.66662e-08
1.04642e-06
8.83032e-08
1.04594e-06
1.00066e-07
1.04495e-06
1.12152e-07
1.04357e-06
1.24679e-07
1.04197e-06
1.377e-07
1.04036e-06
1.51207e-07
1.03898e-06
1.65136e-07
1.0381e-06
1.79369e-07
1.038e-06
1.93738e-07
1.03894e-06
2.08022e-07
1.04119e-06
2.21972e-07
2.35327e-07
1.04494e-06
1.26815e-06
8.03735e-09
1.26958e-06
2.3328e-08
1.27161e-06
3.73186e-08
1.2739e-06
5.02835e-08
1.27618e-06
6.2593e-08
1.27828e-06
7.45666e-08
1.28012e-06
8.64612e-08
1.28171e-06
9.84714e-08
1.28314e-06
1.10723e-07
1.28454e-06
1.23279e-07
1.2861e-06
1.36143e-07
1.28804e-06
1.4927e-07
1.2906e-06
1.62572e-07
1.29406e-06
1.75916e-07
1.29865e-06
1.89138e-07
1.30464e-06
2.02042e-07
1.31219e-06
2.1442e-07
2.26078e-07
1.32144e-06
1.54601e-06
7.34527e-09
1.54803e-06
2.13072e-08
1.55108e-06
3.42726e-08
1.55482e-06
4.65412e-08
1.559e-06
5.8408e-08
1.56347e-06
7.01033e-08
1.56813e-06
8.17937e-08
1.57302e-06
9.35892e-08
1.5782e-06
1.05544e-07
1.58381e-06
1.17664e-07
1.59004e-06
1.2991e-07
1.59711e-06
1.42208e-07
1.60522e-06
1.54454e-07
1.61462e-06
1.66519e-07
1.6255e-06
1.78254e-07
1.63805e-06
1.89501e-07
1.65236e-06
2.00102e-07
2.09928e-07
1.66851e-06
1.88486e-06
6.25241e-09
1.88802e-06
1.81446e-08
1.89291e-06
2.93768e-08
1.89919e-06
4.02668e-08
1.90656e-06
5.10402e-08
1.91483e-06
6.18332e-08
1.9239e-06
7.27197e-08
1.93377e-06
8.37246e-08
1.94448e-06
9.48313e-08
1.95615e-06
1.05991e-07
1.96893e-06
1.17128e-07
1.98299e-06
1.28149e-07
1.9985e-06
1.38945e-07
2.01562e-06
1.49399e-07
2.03449e-06
1.5939e-07
2.05519e-06
1.68799e-07
2.07778e-06
1.77517e-07
1.85473e-07
2.10223e-06
2.29814e-06
4.4511e-09
2.3033e-06
1.29822e-08
2.31134e-06
2.13321e-08
2.32177e-06
2.98381e-08
2.33417e-06
3.8638e-08
2.34826e-06
4.77501e-08
2.36384e-06
5.71375e-08
2.38084e-06
6.67266e-08
2.39925e-06
7.64216e-08
2.41912e-06
8.61174e-08
2.44054e-06
9.5706e-08
2.46361e-06
1.05079e-07
2.48842e-06
1.14132e-07
2.51506e-06
1.22764e-07
2.54357e-06
1.30882e-07
2.57396e-06
1.38405e-07
2.60621e-06
1.45265e-07
1.51431e-07
2.64025e-06
1.68275e-06
2.7759e-09
1.68754e-06
8.18517e-09
1.69499e-06
1.38838e-08
1.70457e-06
2.0261e-08
1.71586e-06
2.73475e-08
1.72857e-06
3.50389e-08
1.74251e-06
4.31957e-08
1.75758e-06
5.16566e-08
1.77374e-06
6.02598e-08
1.791e-06
6.88585e-08
1.80939e-06
7.73232e-08
1.82892e-06
8.55396e-08
1.84965e-06
9.34073e-08
1.87157e-06
1.00839e-07
1.89469e-06
1.07762e-07
1.91898e-06
1.14114e-07
1.9444e-06
1.19853e-07
1.24962e-07
1.97087e-06
1.46513e-06
1.1014e-09
1.47007e-06
3.24737e-09
1.47769e-06
6.2625e-09
1.48733e-06
1.06171e-08
1.49853e-06
1.61533e-08
1.51095e-06
2.26128e-08
1.52441e-06
2.97399e-08
1.53879e-06
3.72726e-08
1.55407e-06
4.49801e-08
1.57025e-06
5.26785e-08
1.58735e-06
6.02233e-08
1.6054e-06
6.74983e-08
1.62439e-06
7.44109e-08
1.64434e-06
8.08874e-08
1.66523e-06
8.68707e-08
1.68703e-06
9.23175e-08
1.70968e-06
9.71999e-08
1.01515e-07
1.73313e-06
1.27555e-06
-4.39411e-10
1.28048e-06
-1.67685e-09
1.28802e-06
-1.27807e-09
1.29734e-06
1.29343e-09
1.30795e-06
5.54812e-09
1.31951e-06
1.10529e-08
1.33183e-06
1.74193e-08
1.34484e-06
2.42644e-08
1.35853e-06
3.12859e-08
1.37294e-06
3.82717e-08
1.38809e-06
4.50704e-08
1.40402e-06
5.15716e-08
1.42073e-06
5.76951e-08
1.43824e-06
6.33834e-08
1.45651e-06
6.8596e-08
1.47552e-06
7.33056e-08
1.49522e-06
7.74982e-08
8.11805e-08
1.51556e-06
1.11034e-06
-1.68343e-09
1.11515e-06
-6.48689e-09
1.12243e-06
-8.56306e-09
1.13117e-06
-7.44172e-09
1.14085e-06
-4.13842e-09
1.15117e-06
7.40894e-10
1.16194e-06
6.64567e-09
1.17316e-06
1.3044e-08
1.18488e-06
1.9567e-08
1.19716e-06
2.59891e-08
1.21007e-06
3.21659e-08
1.22364e-06
3.80023e-08
1.23789e-06
4.34385e-08
1.25284e-06
4.84374e-08
1.26846e-06
5.29772e-08
1.28472e-06
5.70466e-08
1.30157e-06
6.06441e-08
6.37842e-08
1.31897e-06
9.66317e-07
-2.47864e-09
9.70966e-07
-1.11367e-08
9.77863e-07
-1.546e-08
9.85803e-07
-1.5381e-08
9.94312e-07
-1.26478e-08
1.00307e-06
-8.02046e-09
1.01199e-06
-2.27184e-09
1.02114e-06
3.89013e-09
1.03066e-06
1.00507e-08
1.04065e-06
1.59975e-08
1.05121e-06
2.16121e-08
1.06238e-06
2.68289e-08
1.0742e-06
3.16179e-08
1.08667e-06
3.59679e-08
1.09977e-06
3.98775e-08
1.11347e-06
4.33512e-08
1.12771e-06
4.63998e-08
4.90433e-08
1.14245e-06
8.40685e-07
-2.62822e-09
8.45248e-07
-1.56998e-08
8.51634e-07
-2.18457e-08
8.58544e-07
-2.22911e-08
8.65575e-07
-1.96787e-08
8.72452e-07
-1.48976e-08
8.79214e-07
-9.03386e-09
8.86076e-07
-2.9724e-09
8.93252e-07
2.87511e-09
9.009e-07
8.34952e-09
9.09127e-07
1.33849e-08
9.17996e-07
1.79605e-08
9.27528e-07
2.20854e-08
9.37717e-07
2.57787e-08
9.48535e-07
2.90596e-08
9.59939e-07
3.1947e-08
9.71877e-07
3.44619e-08
3.66275e-08
9.84293e-07
7.30685e-07
-1.58473e-09
7.35546e-07
-2.05605e-08
7.41275e-07
-2.7575e-08
7.46789e-07
-2.78051e-08
7.51883e-07
-2.47731e-08
7.56435e-07
-1.94497e-08
7.60713e-07
-1.33116e-08
7.65096e-07
-7.3549e-09
7.6987e-07
-1.89957e-09
7.7522e-07
2.99986e-09
7.81249e-07
7.35583e-09
7.88004e-07
1.1206e-08
7.95485e-07
1.46042e-08
8.03664e-07
1.75997e-08
8.12495e-07
2.02288e-08
8.21921e-07
2.25205e-08
8.31881e-07
2.45022e-08
2.61973e-08
8.42311e-07
6.33757e-07
1.66523e-09
6.39619e-07
-2.64231e-08
6.44272e-07
-3.22282e-08
6.47718e-07
-3.12506e-08
6.50147e-07
-2.72024e-08
6.51787e-07
-2.10893e-08
6.53229e-07
-1.47541e-08
6.55002e-07
-9.12761e-09
6.57414e-07
-4.31167e-09
6.60616e-07
-2.02123e-10
6.6467e-07
3.30168e-09
6.69582e-07
6.29482e-09
6.75308e-07
8.87753e-09
6.81786e-07
1.11215e-08
6.88944e-07
1.30708e-08
6.96709e-07
1.47562e-08
7.05006e-07
1.62048e-08
1.74374e-08
7.13766e-07
5.49655e-07
6.55695e-09
5.56195e-07
-3.29632e-08
5.57875e-07
-3.39081e-08
5.57658e-07
-3.10344e-08
5.56158e-07
-2.57022e-08
5.54096e-07
-1.90275e-08
5.52363e-07
-1.30207e-08
5.515e-07
-8.2651e-09
5.51712e-07
-4.52335e-09
5.53026e-07
-1.51601e-09
5.55399e-07
9.28925e-10
5.58783e-07
2.91091e-09
5.63066e-07
4.59381e-09
5.68141e-07
6.04681e-09
5.73907e-07
7.30465e-09
5.80275e-07
8.38855e-09
5.87165e-07
9.31462e-09
1.00983e-08
5.94504e-07
4.87584e-07
1.73399e-09
4.8531e-07
-3.06898e-08
4.7769e-07
-2.62876e-08
4.69257e-07
-2.26011e-08
4.61227e-07
-1.76729e-08
4.54343e-07
-1.21427e-08
4.4919e-07
-7.86776e-09
4.4586e-07
-4.9358e-09
4.44191e-07
-2.85438e-09
4.43956e-07
-1.28033e-09
4.44969e-07
-8.42413e-11
4.47118e-07
7.62164e-10
4.50194e-07
1.51747e-09
4.54051e-07
2.18942e-09
4.58575e-07
2.78096e-09
4.63669e-07
3.29468e-09
4.69254e-07
3.72982e-09
4.08826e-09
4.75264e-07
4.22002e-07
3.91312e-07
3.65024e-07
3.42423e-07
3.2475e-07
3.12607e-07
3.0474e-07
2.99804e-07
2.96949e-07
2.95669e-07
2.95585e-07
2.96347e-07
2.97865e-07
3.00054e-07
3.02835e-07
3.0613e-07
3.09859e-07
3.13948e-07
5.30106e-08
-5.30106e-08
1.21505e-07
-6.84945e-08
1.86413e-07
-6.49078e-08
2.42908e-07
-5.64949e-08
2.88875e-07
-4.59675e-08
3.23247e-07
-3.43719e-08
3.45674e-07
-2.24263e-08
3.56295e-07
-1.06213e-08
3.55914e-07
3.80579e-10
3.45336e-07
1.05778e-08
3.2711e-07
1.82265e-08
3.0492e-07
2.21901e-08
2.77819e-07
2.71006e-08
2.4753e-07
3.0289e-08
2.165e-07
3.10307e-08
1.83226e-07
3.32738e-08
1.49142e-07
3.40841e-08
1.12023e-07
3.71186e-08
6.95345e-08
4.24886e-08
2.41071e-08
4.54274e-08
-3.18447e-08
5.59518e-08
-9.94618e-08
6.76171e-08
-1.7828e-07
7.88182e-08
-2.68625e-07
9.03449e-08
-3.79548e-07
1.10924e-07
-5.02617e-07
1.23068e-07
-6.30731e-07
1.28115e-07
-7.68675e-07
1.37944e-07
-9.12154e-07
1.43479e-07
-1.05771e-06
1.45561e-07
-1.20245e-06
1.4474e-07
-1.34397e-06
1.41518e-07
-1.48036e-06
1.36389e-07
-1.61019e-06
1.29825e-07
-1.73244e-06
1.22254e-07
-1.84649e-06
1.14049e-07
-1.952e-06
1.05516e-07
-2.0489e-06
9.68974e-08
-2.13727e-06
8.83701e-08
-2.21733e-06
8.00547e-08
-2.28935e-06
7.20228e-08
-2.35366e-06
6.4307e-08
-2.41057e-06
5.69103e-08
-2.46038e-06
4.98142e-08
-2.50337e-06
4.29869e-08
-2.53976e-06
3.63895e-08
-2.56974e-06
2.9981e-08
-2.59346e-06
2.37198e-08
-2.61103e-06
1.75671e-08
-2.62253e-06
1.15058e-08
-2.6281e-06
5.57021e-09
-2.62794e-06
-1.57388e-10
-2.62299e-06
-4.95888e-09
-2.61359e-06
-9.39986e-09
-2.59997e-06
-1.36119e-08
-2.58226e-06
-1.77159e-08
-2.56048e-06
-2.17788e-08
-2.53465e-06
-2.58322e-08
-2.50476e-06
-2.98914e-08
-2.47079e-06
-3.39625e-08
-2.43275e-06
-3.80471e-08
-2.3906e-06
-4.21432e-08
-2.34436e-06
-4.62464e-08
-2.29401e-06
-5.03507e-08
-2.23956e-06
-5.44478e-08
-2.18103e-06
-5.85284e-08
-2.11845e-06
-6.25811e-08
-2.05185e-06
-6.65933e-08
-1.9813e-06
-7.0551e-08
-1.90687e-06
-7.44388e-08
-1.82863e-06
-7.824e-08
-1.74669e-06
-8.19367e-08
-1.66118e-06
-8.55101e-08
-1.57224e-06
-8.89404e-08
-1.48003e-06
-9.22074e-08
-1.38474e-06
-9.52902e-08
-1.28657e-06
-9.81681e-08
-1.18575e-06
-1.0082e-07
-1.08253e-06
-1.03227e-07
-9.77157e-07
-1.05368e-07
-8.69931e-07
-1.07227e-07
-7.61145e-07
-1.08786e-07
-6.51115e-07
-1.10031e-07
-5.40168e-07
-1.10946e-07
-4.28651e-07
-1.11518e-07
-3.16928e-07
-1.11723e-07
-2.05415e-07
-1.11513e-07
-9.47132e-08
-1.10702e-07
1.47015e-08
-1.09415e-07
1.22859e-07
-1.08157e-07
2.29521e-07
-1.06662e-07
3.34185e-07
-1.04664e-07
4.36533e-07
-1.02348e-07
5.36292e-07
-9.97585e-08
6.33219e-07
-9.69271e-08
7.27103e-07
-9.3884e-08
8.17762e-07
-9.06588e-08
9.05044e-07
-8.72818e-08
9.88828e-07
-8.37839e-08
1.06902e-06
-8.01953e-08
1.14557e-06
-7.65442e-08
1.21842e-06
-7.28555e-08
1.28757e-06
-6.91502e-08
1.35302e-06
-6.54439e-08
1.41476e-06
-6.17463e-08
1.47282e-06
-5.80609e-08
1.52721e-06
-5.43845e-08
1.57792e-06
-5.07071e-08
1.62493e-06
-4.70121e-08
1.6682e-06
-4.32763e-08
1.70767e-06
-3.94696e-08
1.74323e-06
-3.55546e-08
1.77472e-06
-3.14911e-08
1.80193e-06
-2.72139e-08
1.82454e-06
-2.2606e-08
1.84218e-06
-1.76425e-08
1.8541e-06
-1.19186e-08
1.85843e-06
-4.33404e-09
1.85209e-06
6.3462e-09
1.83782e-06
1.42649e-08
1.80928e-06
2.85464e-08
1.75988e-06
4.93987e-08
1.69192e-06
6.79564e-08
1.61251e-06
7.94076e-08
1.52504e-06
8.74698e-08
1.42782e-06
9.72223e-08
1.32135e-06
1.06472e-07
1.20684e-06
1.14506e-07
1.08696e-06
1.19888e-07
9.65571e-07
1.21385e-07
8.46991e-07
1.18581e-07
7.35249e-07
1.11742e-07
6.33768e-07
1.0148e-07
5.45264e-07
8.85049e-08
4.71656e-07
7.36074e-08
4.13633e-07
5.80231e-08
3.70117e-07
4.35155e-08
3.38282e-07
3.18352e-08
3.14405e-07
2.38768e-08
2.95173e-07
1.9232e-08
2.78478e-07
1.66959e-08
2.63381e-07
1.50965e-08
2.4969e-07
1.36914e-08
2.37523e-07
1.2167e-08
2.27045e-07
1.04773e-08
2.18352e-07
8.6934e-09
2.11439e-07
6.91322e-09
2.06217e-07
5.22166e-09
2.02538e-07
3.67941e-09
2.00213e-07
2.32479e-09
1.99034e-07
1.17925e-09
1.98819e-07
2.14269e-10
1.99372e-07
-5.53057e-10
2.00564e-07
-1.19165e-09
2.02236e-07
-1.67154e-09
2.0424e-07
-2.00455e-09
2.0645e-07
-2.20992e-09
2.08758e-07
-2.30821e-09
2.11077e-07
-2.3192e-09
2.13339e-07
-2.26108e-09
2.15489e-07
-2.15005e-09
2.17489e-07
-2e-09
2.19311e-07
-1.82242e-09
2.20938e-07
-1.62654e-09
2.22357e-07
-1.41945e-09
2.23563e-07
-1.20639e-09
2.24554e-07
-9.90957e-10
2.25329e-07
-7.75002e-10
2.25888e-07
-5.58481e-10
2.26226e-07
-3.38341e-10
2.26335e-07
-1.0837e-10
2.26169e-07
1.65263e-10
2.25728e-07
4.41396e-10
2.24976e-07
7.52059e-10
2.23834e-07
1.14175e-09
2.22158e-07
1.67642e-09
2.19658e-07
2.50011e-09
2.15746e-07
3.91128e-09
2.08909e-07
6.83685e-09
1.39491e-08
1.9496e-07
6.46247e-08
-1.17635e-07
1.29144e-07
-1.33014e-07
1.79859e-07
-1.15623e-07
2.17164e-07
-9.37998e-08
2.42667e-07
-7.14709e-08
2.57738e-07
-4.94429e-08
2.63496e-07
-2.81839e-08
2.60969e-07
-8.09443e-09
2.50871e-07
1.04782e-08
2.34123e-07
2.7326e-08
2.10083e-07
4.22664e-08
1.76845e-07
5.5429e-08
1.36569e-07
6.73763e-08
8.93623e-08
7.74954e-08
3.25994e-08
8.77936e-08
-3.20885e-08
9.79617e-08
-1.0838e-07
1.10376e-07
-1.96572e-07
1.2531e-07
-2.95819e-07
1.41735e-07
-4.10525e-07
1.60134e-07
-5.36335e-07
1.81762e-07
-6.74982e-07
2.06264e-07
-8.23803e-07
2.27638e-07
-9.80671e-07
2.47213e-07
-1.13424e-06
2.64488e-07
-1.28797e-06
2.76807e-07
-1.44014e-06
2.80276e-07
-1.58234e-06
2.80151e-07
-1.71456e-06
2.75696e-07
-1.83624e-06
2.67241e-07
-1.94708e-06
2.55576e-07
-2.0471e-06
2.41538e-07
-2.13664e-06
2.25936e-07
-2.2163e-06
2.09478e-07
-2.28679e-06
1.92744e-07
-2.34891e-06
1.76173e-07
-2.40347e-06
1.60076e-07
-2.45123e-06
1.4465e-07
-2.49286e-06
1.3e-07
-2.52896e-06
1.16161e-07
-2.56006e-06
1.03121e-07
-2.58658e-06
9.08305e-08
-2.6089e-06
7.92248e-08
-2.62731e-06
6.82287e-08
-2.64209e-06
5.77666e-08
-2.65347e-06
4.77672e-08
-2.66166e-06
3.81677e-08
-2.66685e-06
2.89164e-08
-2.66926e-06
1.99779e-08
-2.66909e-06
1.13361e-08
-2.66652e-06
2.99352e-09
-2.66154e-06
-5.1381e-09
-2.65338e-06
-1.31123e-08
-2.64169e-06
-2.10931e-08
-2.62624e-06
-2.90652e-08
-2.60692e-06
-3.70355e-08
-2.58368e-06
-4.5019e-08
-2.55648e-06
-5.3028e-08
-2.5253e-06
-6.10695e-08
-2.49012e-06
-6.91457e-08
-2.45091e-06
-7.72541e-08
-2.40767e-06
-8.53885e-08
-2.36038e-06
-9.35388e-08
-2.30904e-06
-1.01692e-07
-2.25365e-06
-1.09831e-07
-2.19424e-06
-1.17936e-07
-2.13084e-06
-1.25986e-07
-2.06348e-06
-1.33955e-07
-1.99221e-06
-1.41814e-07
-1.91712e-06
-1.49534e-07
-1.83828e-06
-1.57079e-07
-1.7558e-06
-1.64416e-07
-1.6698e-06
-1.71507e-07
-1.58043e-06
-1.78311e-07
-1.48785e-06
-1.84789e-07
-1.39224e-06
-1.90899e-07
-1.29381e-06
-1.96599e-07
-1.19279e-06
-2.01848e-07
-1.08941e-06
-2.06606e-07
-9.83942e-07
-2.10833e-07
-8.76676e-07
-2.14493e-07
-7.67909e-07
-2.17552e-07
-6.5796e-07
-2.1998e-07
-5.47157e-07
-2.21749e-07
-4.35842e-07
-2.22833e-07
-3.2436e-07
-2.23204e-07
-2.13049e-07
-2.22824e-07
-1.02116e-07
-2.21635e-07
8.15427e-09
-2.19685e-07
1.17136e-07
-2.17139e-07
2.24439e-07
-2.13964e-07
3.29885e-07
-2.10111e-07
4.33194e-07
-2.05658e-07
5.34101e-07
-2.00665e-07
6.32361e-07
-1.95187e-07
7.27756e-07
-1.89279e-07
8.20098e-07
-1.83e-07
9.09228e-07
-1.76412e-07
9.95021e-07
-1.69576e-07
1.07738e-06
-1.62553e-07
1.15623e-06
-1.55398e-07
1.23154e-06
-1.4816e-07
1.30327e-06
-1.40881e-07
1.37141e-06
-1.33591e-07
1.43598e-06
-1.2631e-07
1.49696e-06
-1.19044e-07
1.55436e-06
-1.11789e-07
1.60818e-06
-1.04524e-07
1.65839e-06
-9.72172e-08
1.70494e-06
-8.98252e-08
1.74776e-06
-8.22905e-08
1.78675e-06
-7.45435e-08
1.82176e-06
-6.65027e-08
1.85261e-06
-5.80622e-08
1.87909e-06
-4.90878e-08
1.90091e-06
-3.94673e-08
1.91807e-06
-2.90735e-08
1.93142e-06
-1.76858e-08
1.94187e-06
-4.1089e-09
1.94479e-06
1.13518e-08
1.94139e-06
3.19411e-08
1.93291e-06
5.78837e-08
1.91354e-06
8.73276e-08
1.87639e-06
1.16555e-07
1.81934e-06
1.44515e-07
1.74298e-06
1.73585e-07
1.64755e-06
2.01904e-07
1.53494e-06
2.27118e-07
1.40835e-06
2.46476e-07
1.2725e-06
2.57228e-07
1.13337e-06
2.57712e-07
9.9727e-07
2.47844e-07
8.69916e-07
2.28834e-07
7.55827e-07
2.02594e-07
6.58035e-07
1.71399e-07
5.77967e-07
1.38091e-07
5.15198e-07
1.06285e-07
4.67353e-07
7.96795e-08
4.30727e-07
6.05028e-08
4.01465e-07
4.84942e-08
3.76643e-07
4.15181e-08
3.5466e-07
3.70792e-08
3.34964e-07
3.33882e-08
3.17544e-07
2.95867e-08
3.0254e-07
2.54813e-08
2.90032e-07
2.1201e-08
2.79984e-07
1.69619e-08
2.72251e-07
1.29545e-08
2.66621e-07
9.30931e-09
2.62846e-07
6.09925e-09
2.60676e-07
3.34997e-09
2.59845e-07
1.04457e-09
2.60117e-07
-8.24396e-10
2.61227e-07
-2.3023e-09
2.62972e-07
-3.41587e-09
2.65171e-07
-4.20378e-09
2.67671e-07
-4.70983e-09
2.70341e-07
-4.97812e-09
2.73072e-07
-5.05093e-09
2.75779e-07
-4.96732e-09
2.78391e-07
-4.76238e-09
2.80858e-07
-4.46658e-09
2.83141e-07
-4.10556e-09
2.85214e-07
-3.70017e-09
2.87062e-07
-3.26678e-09
2.88673e-07
-2.81765e-09
2.90043e-07
-2.36131e-09
2.91171e-07
-1.90267e-09
2.92055e-07
-1.44296e-09
2.92696e-07
-9.78739e-10
2.93087e-07
-4.99635e-10
2.93239e-07
1.31303e-11
2.93119e-07
5.61603e-10
2.92687e-07
1.18407e-09
2.91883e-07
1.94533e-09
2.90608e-07
2.95167e-09
2.8868e-07
4.42851e-09
2.85839e-07
6.75227e-09
2.81431e-07
1.12448e-08
2.0445e-08
2.74935e-07
5.27321e-08
-1.70367e-07
8.85233e-08
-1.68805e-07
1.12473e-07
-1.39573e-07
1.26931e-07
-1.08258e-07
1.32804e-07
-7.73437e-08
1.30664e-07
-4.73026e-08
1.20884e-07
-1.84037e-08
1.0365e-07
9.13925e-09
7.89186e-08
3.52095e-08
4.64423e-08
5.98023e-08
5.62446e-09
8.30842e-08
-4.43205e-08
1.05374e-07
-1.03953e-07
1.27009e-07
-1.74677e-07
1.4822e-07
-2.56967e-07
1.70083e-07
-3.51952e-07
1.92947e-07
-4.59177e-07
2.176e-07
-5.77851e-07
2.43984e-07
-7.07382e-07
2.71266e-07
-8.45937e-07
2.98689e-07
-9.89264e-07
3.2509e-07
-1.13192e-06
3.48921e-07
-1.27199e-06
3.67712e-07
-1.40563e-06
3.80845e-07
-1.52883e-06
3.8769e-07
-1.64014e-06
3.88118e-07
-1.74202e-06
3.82154e-07
-1.83323e-06
3.71365e-07
-1.91436e-06
3.56824e-07
-1.98658e-06
3.3946e-07
-2.05117e-06
3.20166e-07
-2.10936e-06
2.99735e-07
-2.16225e-06
2.78822e-07
-2.21071e-06
2.57941e-07
-2.25543e-06
2.37466e-07
-2.29691e-06
2.17646e-07
-2.33546e-06
1.98631e-07
-2.3713e-06
1.80491e-07
-2.40454e-06
1.63237e-07
-2.43522e-06
1.46839e-07
-2.46334e-06
1.3124e-07
-2.48887e-06
1.16366e-07
-2.51179e-06
1.02137e-07
-2.53203e-06
8.84728e-08
-2.54956e-06
7.52936e-08
-2.56432e-06
6.25269e-08
-2.57626e-06
5.0106e-08
-2.58531e-06
3.79708e-08
-2.5914e-06
2.60677e-08
-2.59441e-06
1.43474e-08
-2.59417e-06
2.75283e-09
-2.59053e-06
-8.78038e-09
-2.58331e-06
-2.03306e-08
-2.57247e-06
-3.19299e-08
-2.55795e-06
-4.35836e-08
-2.53969e-06
-5.52976e-08
-2.51763e-06
-6.70774e-08
-2.49174e-06
-7.89268e-08
-2.46196e-06
-9.08467e-08
-2.42827e-06
-1.02834e-07
-2.39064e-06
-1.14879e-07
-2.34906e-06
-1.26972e-07
-2.3035e-06
-1.39096e-07
-2.25397e-06
-1.51228e-07
-2.20045e-06
-1.63345e-07
-2.14297e-06
-1.75415e-07
-2.08155e-06
-1.87406e-07
-2.01623e-06
-1.9928e-07
-1.94705e-06
-2.10993e-07
-1.87408e-06
-2.225e-07
-1.79741e-06
-2.3375e-07
-1.71714e-06
-2.44692e-07
-1.63338e-06
-2.55267e-07
-1.54627e-06
-2.65418e-07
-1.45598e-06
-2.75084e-07
-1.36267e-06
-2.84202e-07
-1.26656e-06
-2.9271e-07
-1.16786e-06
-3.00546e-07
-1.06682e-06
-3.07649e-07
-9.63692e-07
-3.1396e-07
-8.58761e-07
-3.19424e-07
-7.52324e-07
-3.23989e-07
-6.44695e-07
-3.27609e-07
-5.362e-07
-3.30244e-07
-4.27176e-07
-3.31857e-07
-3.17959e-07
-3.32421e-07
-2.08875e-07
-3.31909e-07
-1.00199e-07
-3.3031e-07
7.76918e-09
-3.27653e-07
1.14617e-07
-3.23987e-07
2.19987e-07
-3.19334e-07
3.2361e-07
-3.13734e-07
4.25201e-07
-3.07249e-07
5.24488e-07
-2.99952e-07
6.21221e-07
-2.91921e-07
7.15182e-07
-2.8324e-07
8.06182e-07
-2.74e-07
8.94062e-07
-2.64292e-07
9.78696e-07
-2.54211e-07
1.05999e-06
-2.43844e-07
1.13787e-06
-2.33276e-07
1.21229e-06
-2.2258e-07
1.28322e-06
-2.11817e-07
1.35066e-06
-2.01031e-07
1.4146e-06
-1.90252e-07
1.47505e-06
-1.79489e-07
1.532e-06
-1.68735e-07
1.58543e-06
-1.57961e-07
1.63534e-06
-1.4712e-07
1.68166e-06
-1.36148e-07
1.72433e-06
-1.24964e-07
1.76326e-06
-1.13469e-07
1.7983e-06
-1.01548e-07
1.82931e-06
-8.9064e-08
1.85608e-06
-7.58599e-08
1.87837e-06
-6.17636e-08
1.89591e-06
-4.66091e-08
1.9084e-06
-3.01741e-08
1.91607e-06
-1.17778e-08
1.91802e-06
9.40015e-09
1.91549e-06
3.44678e-08
1.90911e-06
6.4262e-08
1.89736e-06
9.90844e-08
1.87638e-06
1.37534e-07
1.8422e-06
1.78693e-07
1.79282e-06
2.22969e-07
1.726e-06
2.68715e-07
1.64049e-06
3.12637e-07
1.53662e-06
3.50339e-07
1.41697e-06
3.76878e-07
1.28641e-06
3.88273e-07
1.15141e-06
3.82845e-07
1.0188e-06
3.61449e-07
8.94622e-07
3.26769e-07
7.83489e-07
2.82532e-07
6.88267e-07
2.33313e-07
6.09978e-07
1.84574e-07
5.47767e-07
1.4189e-07
4.99163e-07
1.09107e-07
4.60819e-07
8.68387e-08
4.29555e-07
7.27815e-08
4.03113e-07
6.35214e-08
3.80264e-07
5.62371e-08
3.60503e-07
4.93481e-08
3.43666e-07
4.23183e-08
3.29673e-07
3.5194e-08
3.18404e-07
2.82303e-08
3.09673e-07
2.1686e-08
3.03235e-07
1.5747e-08
2.98818e-07
1.05164e-08
2.96139e-07
6.02885e-09
2.94913e-07
2.27105e-09
2.94874e-07
-7.85818e-10
2.95769e-07
-3.19689e-09
2.97376e-07
-5.02333e-09
2.99504e-07
-6.33196e-09
3.01987e-07
-7.19251e-09
3.04683e-07
-7.67387e-09
3.07474e-07
-7.84184e-09
3.10264e-07
-7.75736e-09
3.12977e-07
-7.47543e-09
3.15554e-07
-7.04421e-09
3.17953e-07
-6.50463e-09
3.20144e-07
-5.89039e-09
3.22105e-07
-5.2282e-09
3.23826e-07
-4.53834e-09
3.25299e-07
-3.83509e-09
3.26524e-07
-3.1271e-09
3.27498e-07
-2.41736e-09
3.28222e-07
-1.70226e-09
3.28694e-07
-9.71354e-10
3.28913e-07
-2.06381e-10
3.28859e-07
6.15782e-10
3.285e-07
1.54305e-09
3.27788e-07
2.65767e-09
3.26646e-07
4.09338e-09
3.24962e-07
6.11202e-09
3.22588e-07
9.12642e-09
3.19448e-07
1.43849e-08
2.37529e-08
3.1614e-07
2.43353e-08
-1.94703e-07
2.92843e-08
-1.73754e-07
2.75431e-08
-1.37831e-07
2.02481e-08
-1.00963e-07
7.278e-09
-6.43736e-08
-1.16818e-08
-2.83429e-08
-3.70606e-08
6.97508e-09
-6.94045e-08
4.14832e-08
-1.09351e-07
7.51561e-08
-1.57605e-07
1.08057e-07
-2.14881e-07
1.4036e-07
-2.81832e-07
1.72325e-07
-3.5905e-07
2.04226e-07
-4.47141e-07
2.36311e-07
-5.4591e-07
2.68853e-07
-6.54789e-07
3.01826e-07
-7.72078e-07
3.34889e-07
-8.95264e-07
3.6717e-07
-1.02136e-06
3.97365e-07
-1.14674e-06
4.24065e-07
-1.26759e-06
4.45938e-07
-1.38048e-06
4.61816e-07
-1.48369e-06
4.70922e-07
-1.57608e-06
4.73238e-07
-1.65765e-06
4.6926e-07
-1.72933e-06
4.59797e-07
-1.79299e-06
4.45811e-07
-1.85009e-06
4.28461e-07
-1.90198e-06
4.08717e-07
-1.94992e-06
3.87396e-07
-1.99491e-06
3.65166e-07
-2.03774e-06
3.42558e-07
-2.07889e-06
3.19976e-07
-2.11867e-06
2.97715e-07
-2.15717e-06
2.75974e-07
-2.19441e-06
2.54879e-07
-2.23027e-06
2.34494e-07
-2.26462e-06
2.14839e-07
-2.29728e-06
1.959e-07
-2.32808e-06
1.77638e-07
-2.35684e-06
1.60001e-07
-2.3834e-06
1.42926e-07
-2.40761e-06
1.26344e-07
-2.42932e-06
1.10186e-07
-2.44841e-06
9.4384e-08
-2.46476e-06
7.8874e-08
-2.47824e-06
6.3594e-08
-2.48876e-06
4.84869e-08
-2.49619e-06
3.3499e-08
-2.50042e-06
1.85795e-08
-2.50135e-06
3.67854e-09
-2.49887e-06
-1.12552e-08
-2.49294e-06
-2.62656e-08
-2.48349e-06
-4.13779e-08
-2.47047e-06
-5.66021e-08
-2.45383e-06
-7.1944e-08
-2.4335e-06
-8.74062e-08
-2.40944e-06
-1.02988e-07
-2.3816e-06
-1.18686e-07
-2.34994e-06
-1.34491e-07
-2.31443e-06
-1.5039e-07
-2.27504e-06
-1.66363e-07
-2.23175e-06
-1.82388e-07
-2.18454e-06
-1.98435e-07
-2.13341e-06
-2.1447e-07
-2.07838e-06
-2.30453e-07
-2.01944e-06
-2.46338e-07
-1.95665e-06
-2.62073e-07
-1.89004e-06
-2.77604e-07
-1.81967e-06
-2.92867e-07
-1.74563e-06
-3.07796e-07
-1.668e-06
-3.22321e-07
-1.5869e-06
-3.36366e-07
-1.50247e-06
-3.49852e-07
-1.41485e-06
-3.62699e-07
-1.32423e-06
-3.74823e-07
-1.2308e-06
-3.86141e-07
-1.13477e-06
-3.96571e-07
-1.03639e-06
-4.06029e-07
-9.35916e-07
-4.14437e-07
-8.33618e-07
-4.21722e-07
-7.29793e-07
-4.27814e-07
-6.2475e-07
-4.32652e-07
-5.18811e-07
-4.36182e-07
-4.12308e-07
-4.38361e-07
-3.05573e-07
-4.39155e-07
-1.98934e-07
-4.38547e-07
-9.27076e-08
-4.36537e-07
1.27893e-08
-4.3315e-07
1.17221e-07
-4.28419e-07
2.20261e-07
-4.22374e-07
3.21605e-07
-4.15078e-07
4.2096e-07
-4.06604e-07
5.18054e-07
-3.97046e-07
6.12642e-07
-3.86508e-07
7.04506e-07
-3.75104e-07
7.93461e-07
-3.62955e-07
8.79354e-07
-3.50185e-07
9.62061e-07
-3.36918e-07
1.04149e-06
-3.23273e-07
1.11758e-06
-3.09362e-07
1.19027e-06
-2.9528e-07
1.25957e-06
-2.81107e-07
1.32544e-06
-2.66904e-07
1.38789e-06
-2.52707e-07
1.44693e-06
-2.3853e-07
1.50256e-06
-2.24359e-07
1.55476e-06
-2.10158e-07
1.6035e-06
-1.95865e-07
1.64875e-06
-1.81397e-07
1.69043e-06
-1.66648e-07
1.72846e-06
-1.51493e-07
1.7627e-06
-1.35788e-07
1.793e-06
-1.19365e-07
1.81918e-06
-1.02039e-07
1.84101e-06
-8.36011e-08
1.85824e-06
-6.3833e-08
1.87053e-06
-4.24693e-08
1.87774e-06
-1.89848e-08
1.87978e-06
7.35994e-09
1.87695e-06
3.72997e-08
1.86958e-06
7.16354e-08
1.85749e-06
1.11175e-07
1.83949e-06
1.55528e-07
1.81385e-06
2.0433e-07
1.77879e-06
2.58032e-07
1.73186e-06
3.15644e-07
1.6703e-06
3.74199e-07
1.59182e-06
4.28822e-07
1.49569e-06
4.73004e-07
1.38379e-06
5.00169e-07
1.26076e-06
5.05882e-07