/*--------------------------------*- C++ -*----------------------------------*\
  =========                 |
  \\      /  F ield         | OpenFOAM: The Open Source CFD Toolbox
   \\    /   O peration     | Website:  https://openfoam.org
    \\  /    A nd           | Version:  9
     \\/     M anipulation  |
\*---------------------------------------------------------------------------*/
FoamFile
{
    format      ascii;
    class       volVectorField;
    location    "0.09";
    object      U;
}
// * * * * * * * * * * * * * * * * * * * * * * * * * * * * * * * * * * * * * //

dimensions      [0 1 -1 0 0 0 0];

internalField   nonuniform List<vector> 
12225
(
(0.93156 -0.314014 0)
(0.895962 -0.0911377 0)
(0.798669 -0.00251634 0)
(0.697653 0.0120904 0)
(0.626532 0.0101075 0)
(0.576753 0.00730815 0)
(0.536468 0.00598362 0)
(0.500396 0.00564692 0)
(0.466131 0.00574219 0)
(0.43215 0.0060135 0)
(0.397564 0.0063762 0)
(0.361915 0.00678875 0)
(0.325035 0.00719545 0)
(0.286982 0.00750647 0)
(0.248558 0.00753316 0)
(0.21027 0.00697731 0)
(0.178557 0.00355607 0)
(0.149028 0.00987991 0)
(1.02648 0.0773992 0)
(1.00448 0.0659117 0)
(0.967197 0.035866 0)
(0.919825 0.0260439 0)
(0.874202 0.0216307 0)
(0.832917 0.0182043 0)
(0.794687 0.0162053 0)
(0.758489 0.0155633 0)
(0.72312 0.0158191 0)
(0.687242 0.0166487 0)
(0.649784 0.0178923 0)
(0.609963 0.0194512 0)
(0.567191 0.0212191 0)
(0.520985 0.0230259 0)
(0.471282 0.0245951 0)
(0.417277 0.0252482 0)
(0.360148 0.0227482 0)
(0.288752 0.028983 0)
(1.00044 0.0232549 0)
(1.00015 0.0359159 0)
(0.995779 0.0341609 0)
(0.975817 0.0324794 0)
(0.948429 0.0297608 0)
(0.918492 0.0268439 0)
(0.88742 0.0251478 0)
(0.855994 0.0248748 0)
(0.824118 0.0257108 0)
(0.791083 0.0274017 0)
(0.7561 0.0298142 0)
(0.718454 0.0328592 0)
(0.677476 0.0364404 0)
(0.63245 0.0404017 0)
(0.582734 0.0445251 0)
(0.526826 0.0482906 0)
(0.463473 0.0510895 0)
(0.384426 0.0651816 0)
(0.998296 0.00618159 0)
(1.00121 0.0280934 0)
(1.00528 0.0353581 0)
(0.996628 0.036929 0)
(0.979942 0.0360658 0)
(0.958712 0.0344522 0)
(0.934326 0.0336348 0)
(0.907982 0.0341003 0)
(0.880122 0.035767 0)
(0.850508 0.0385086 0)
(0.818659 0.0422568 0)
(0.784021 0.0469675 0)
(0.745985 0.0525951 0)
(0.703804 0.0590633 0)
(0.656634 0.0663063 0)
(0.602909 0.074144 0)
(0.541136 0.0830608 0)
(0.465944 0.103514 0)
(0.999187 0.00563575 0)
(1.00248 0.0272759 0)
(1.00831 0.0362563 0)
(1.00514 0.0396327 0)
(0.995103 0.0406627 0)
(0.980185 0.0406722 0)
(0.961324 0.0411028 0)
(0.939625 0.0426235 0)
(0.9157 0.0453565 0)
(0.889579 0.0493137 0)
(0.861016 0.0545157 0)
(0.829629 0.06099 0)
(0.794923 0.0687717 0)
(0.756238 0.0779007 0)
(0.712777 0.0884899 0)
(0.66325 0.100674 0)
(0.60659 0.115447 0)
(0.539545 0.140495 0)
(0.999585 0.006831 0)
(1.00271 0.026296 0)
(1.00864 0.0360142 0)
(1.00839 0.0410439 0)
(1.00256 0.0438826 0)
(0.992139 0.0455866 0)
(0.977666 0.047462 0)
(0.959994 0.0502555 0)
(0.93971 0.0542356 0)
(0.916969 0.0595365 0)
(0.891683 0.0662708 0)
(0.863616 0.0745469 0)
(0.832409 0.0844887 0)
(0.797553 0.0962524 0)
(0.758436 0.110095 0)
(0.714162 0.126349 0)
(0.664198 0.14611 0)
(0.606775 0.17456 0)
(0.999647 0.00701488 0)
(1.00245 0.0246956 0)
(1.00794 0.0351517 0)
(1.0092 0.0416447 0)
(1.006 0.0461016 0)
(0.998767 0.0494461 0)
(0.98772 0.0528331 0)
(0.973449 0.0570154 0)
(0.956438 0.0623562 0)
(0.936883 0.0690848 0)
(0.914789 0.0773942 0)
(0.890038 0.0874682 0)
(0.862407 0.0995097 0)
(0.831563 0.113766 0)
(0.797127 0.130579 0)
(0.758604 0.15036 0)
(0.715917 0.174077 0)
(0.668263 0.205016 0)
(0.999688 0.0067833 0)
(1.00209 0.0230852 0)
(1.0069 0.0340836 0)
(1.00883 0.0417507 0)
(1.00727 0.0476085 0)
(1.00228 0.0524768 0)
(0.99389 0.0573535 0)
(0.982456 0.0629584 0)
(0.968345 0.0697078 0)
(0.951746 0.0778973 0)
(0.932721 0.0877818 0)
(0.911242 0.0996042 0)
(0.887209 0.113626 0)
(0.860463 0.130148 0)
(0.830852 0.149538 0)
(0.798219 0.172198 0)
(0.76282 0.198866 0)
(0.724415 0.231479 0)
(0.999764 0.00654981 0)
(1.00175 0.0216877 0)
(1.00578 0.0329785 0)
(1.00792 0.0415527 0)
(1.00736 0.0486039 0)
(1.00397 0.0548486 0)
(0.997637 0.0611365 0)
(0.988564 0.0681347 0)
(0.977006 0.0762817 0)
(0.963131 0.0859129 0)
(0.947031 0.0973234 0)
(0.92875 0.110795 0)
(0.908292 0.12662 0)
(0.885651 0.145116 0)
(0.860865 0.166632 0)
(0.834028 0.191497 0)
(0.805597 0.2202 0)
(0.775617 0.253759 0)
(0.999847 0.00636054 0)
(1.00144 0.0205022 0)
(1.00474 0.0319054 0)
(1.00683 0.0411728 0)
(1.00687 0.0492264 0)
(1.00462 0.0566854 0)
(0.999908 0.0642692 0)
(0.992812 0.072583 0)
(0.983507 0.0820649 0)
(0.972137 0.0930675 0)
(0.958813 0.105905 0)
(0.943631 0.120875 0)
(0.926684 0.138275 0)
(0.908083 0.158408 0)
(0.888008 0.181565 0)
(0.866716 0.207983 0)
(0.844755 0.237921 0)
(0.822279 0.271803 0)
(0.999913 0.00618781 0)
(1.00119 0.0195009 0)
(1.00383 0.0309044 0)
(1.00576 0.0406927 0)
(1.00617 0.0495732 0)
(1.00476 0.0580798 0)
(1.00135 0.0668204 0)
(0.995934 0.0763356 0)
(0.988633 0.0870465 0)
(0.979572 0.0993039 0)
(0.968874 0.113422 0)
(0.956676 0.129694 0)
(0.943133 0.148398 0)
(0.928445 0.169798 0)
(0.912878 0.194114 0)
(0.89678 0.221477 0)
(0.880708 0.251966 0)
(0.864833 0.285643 0)
(0.999958 0.00602409 0)
(1.00101 0.0187193 0)
(1.00317 0.0300578 0)
(1.00492 0.0401952 0)
(1.00556 0.0496895 0)
(1.00476 0.0590058 0)
(1.00234 0.0686664 0)
(0.998267 0.0791539 0)
(0.992627 0.0908629 0)
(0.98553 0.104129 0)
(0.977109 0.119252 0)
(0.967527 0.136504 0)
(0.95698 0.156134 0)
(0.945712 0.178352 0)
(0.934035 0.203308 0)
(0.922322 0.231049 0)
(0.9111 0.261531 0)
(0.900512 0.294616 0)
(0.999992 0.00586845 0)
(1.00087 0.0180464 0)
(1.00266 0.0292795 0)
(1.00427 0.0396666 0)
(1.00509 0.0496526 0)
(1.00482 0.0596424 0)
(1.00327 0.0700857 0)
(1.00042 0.0814088 0)
(0.996306 0.0939734 0)
(0.991046 0.108091 0)
(0.984776 0.124036 0)
(0.977674 0.142052 0)
(0.96996 0.162344 0)
(0.9619 0.18507 0)
(0.953818 0.210311 0)
(0.94608 0.238042 0)
(0.939151 0.268133 0)
(0.933131 0.300333 0)
(1.00002 0.00569253 0)
(1.00077 0.0173674 0)
(1.00228 0.0284418 0)
(1.00381 0.0389979 0)
(1.00484 0.0493938 0)
(1.00513 0.0599799 0)
(1.00451 0.0711352 0)
(1.00294 0.0832253 0)
(1.00046 0.0965687 0)
(0.997181 0.11144 0)
(0.993237 0.128077 0)
(0.988815 0.146678 0)
(0.984143 0.167398 0)
(0.979488 0.19033 0)
(0.975158 0.215491 0)
(0.971483 0.242792 0)
(0.968842 0.272042 0)
(0.967283 0.302943 0)
(1.00004 0.00548837 0)
(1.00073 0.0166565 0)
(1.00209 0.0274982 0)
(1.00365 0.0381086 0)
(1.00501 0.0487826 0)
(1.00595 0.0598221 0)
(1.00634 0.0715401 0)
(1.00616 0.0842384 0)
(1.00544 0.0981827 0)
(1.00427 0.113599 0)
(1.00281 0.130676 0)
(1.00122 0.149556 0)
(0.999721 0.170335 0)
(0.998567 0.193046 0)
(0.998019 0.217643 0)
(0.99835 0.243994 0)
(0.999838 0.271878 0)
(1.00249 0.301002 0)
(1.00006 0.00522918 0)
(1.00077 0.0158337 0)
(1.00217 0.0263186 0)
(1.00395 0.0368111 0)
(1.00581 0.0475614 0)
(1.00756 0.0588253 0)
(1.00913 0.0708547 0)
(1.01048 0.0838863 0)
(1.01166 0.0981256 0)
(1.01275 0.113741 0)
(1.01388 0.130862 0)
(1.01521 0.149572 0)
(1.01693 0.169908 0)
(1.01925 0.191847 0)
(1.02237 0.215301 0)
(1.02649 0.240113 0)
(1.03179 0.266064 0)
(1.03824 0.292897 0)
(1.00007 0.00486596 0)
(1.00091 0.0147378 0)
(1.00256 0.0246442 0)
(1.00481 0.034748 0)
(1.00742 0.0452674 0)
(1.01024 0.0564116 0)
(1.0132 0.0683738 0)
(1.01628 0.0813253 0)
(1.01952 0.0954073 0)
(1.02299 0.110726 0)
(1.02679 0.127349 0)
(1.03105 0.145306 0)
(1.03592 0.164578 0)
(1.04154 0.185105 0)
(1.04806 0.206773 0)
(1.05561 0.229424 0)
(1.06428 0.252861 0)
(1.07402 0.276879 0)
(1.0001 0.0043099 0)
(1.00118 0.0130856 0)
(1.00331 0.022021 0)
(1.00631 0.0313062 0)
(1.00997 0.0411328 0)
(1.01414 0.0516618 0)
(1.01875 0.0630272 0)
(1.02378 0.0753354 0)
(1.02922 0.0886624 0)
(1.03515 0.103053 0)
(1.04161 0.118518 0)
(1.04871 0.135038 0)
(1.05652 0.152558 0)
(1.06516 0.170993 0)
(1.07468 0.190222 0)
(1.08516 0.210102 0)
(1.09664 0.230469 0)
(1.10905 0.251172 0)
(1.00014 0.0034178 0)
(1.00159 0.0104284 0)
(1.00444 0.0177239 0)
(1.00851 0.0255185 0)
(1.01353 0.0339725 0)
(1.01932 0.0431937 0)
(1.02579 0.0532542 0)
(1.03288 0.0641952 0)
(1.04058 0.0760291 0)
(1.0489 0.0887437 0)
(1.05788 0.102304 0)
(1.06755 0.116653 0)
(1.07796 0.131713 0)
(1.08914 0.147391 0)
(1.10114 0.163574 0)
(1.11395 0.180139 0)
(1.12759 0.19696 0)
(1.14199 0.213933 0)
(1.00017 0.00231061 0)
(1.00201 0.00709353 0)
(1.00563 0.0122904 0)
(1.01077 0.0181715 0)
(1.01704 0.024866 0)
(1.02421 0.0324244 0)
(1.03215 0.0408567 0)
(1.04078 0.0501407 0)
(1.05007 0.0602314 0)
(1.06 0.0710705 0)
(1.07059 0.0825893 0)
(1.08186 0.0947098 0)
(1.09382 0.107346 0)
(1.1065 0.120403 0)
(1.11989 0.133783 0)
(1.13399 0.147384 0)
(1.14877 0.161106 0)
(1.16419 0.174874 0)
(1.00019 0.00124662 0)
(1.00233 0.00386293 0)
(1.00662 0.00707561 0)
(1.01263 0.0112271 0)
(1.01983 0.0163873 0)
(1.02794 0.0225365 0)
(1.0368 0.0296198 0)
(1.04632 0.0375512 0)
(1.05645 0.046233 0)
(1.06719 0.0555695 0)
(1.07855 0.0654689 0)
(1.09054 0.0758407 0)
(1.10319 0.0865958 0)
(1.11649 0.0976458 0)
(1.13044 0.108903 0)
(1.14503 0.120282 0)
(1.16021 0.131704 0)
(1.17597 0.143111 0)
(1.00017 0.00021877 0)
(1.00254 0.000600288 0)
(1.00747 0.00184563 0)
(1.01425 0.00439232 0)
(1.02218 0.00819129 0)
(1.03092 0.0131339 0)
(1.04031 0.0190888 0)
(1.05025 0.0258931 0)
(1.06073 0.0333932 0)
(1.07174 0.0414606 0)
(1.08333 0.0499861 0)
(1.09552 0.058873 0)
(1.10832 0.068034 0)
(1.12174 0.0773887 0)
(1.13578 0.0868623 0)
(1.15042 0.0963841 0)
(1.16561 0.105891 0)
(1.18134 0.115341 0)
(1.0001 -0.000708399 0)
(1.00257 -0.00263234 0)
(1.00813 -0.00326077 0)
(1.0156 -0.0021053 0)
(1.02402 0.00057215 0)
(1.03307 0.00457074 0)
(1.04259 0.00966529 0)
(1.05251 0.0155963 0)
(1.06283 0.022151 0)
(1.07363 0.0291745 0)
(1.08497 0.0365477 0)
(1.09689 0.0441742 0)
(1.10942 0.0519744 0)
(1.12258 0.0598801 0)
(1.13636 0.0678309 0)
(1.15073 0.0757717 0)
(1.16566 0.0836547 0)
(1.18112 0.0914495 0)
(0.999949 -0.00146499 0)
(1.00234 -0.00586126 0)
(1.00857 -0.00818425 0)
(1.01661 -0.00811567 0)
(1.02524 -0.00626669 0)
(1.03421 -0.00290685 0)
(1.04337 0.00162074 0)
(1.05271 0.0069327 0)
(1.06234 0.0127589 0)
(1.07241 0.0189298 0)
(1.08302 0.0253274 0)
(1.09425 0.031865 0)
(1.10615 0.0384781 0)
(1.11872 0.0451158 0)
(1.13196 0.0517346 0)
(1.14585 0.0582959 0)
(1.16032 0.064767 0)
(1.17535 0.0711281 0)
(0.99965 -0.00165562 0)
(1.00172 -0.00896631 0)
(1.0088 -0.0128412 0)
(1.0172 -0.0135057 0)
(1.02557 -0.0121342 0)
(1.03383 -0.00906757 0)
(1.04192 -0.00481302 0)
(1.04997 0.000103427 0)
(1.05825 0.00536893 0)
(1.06702 0.0108194 0)
(1.07643 0.0163548 0)
(1.08658 0.0219106 0)
(1.09752 0.0274466 0)
(1.10925 0.0329349 0)
(1.12175 0.0383515 0)
(1.13497 0.0436744 0)
(1.14886 0.0488861 0)
(1.16339 0.0539754 0)
(0.998726 -0.000237673 0)
(1.00031 -0.011236 0)
(1.00865 -0.0168201 0)
(1.01704 -0.0180011 0)
(1.02421 -0.0167363 0)
(1.0307 -0.0135981 0)
(1.03666 -0.00936721 0)
(1.04248 -0.00470498 0)
(1.04864 7.6903e-05 0)
(1.0555 0.00485219 0)
(1.06324 0.00955969 0)
(1.07196 0.0141694 0)
(1.08168 0.0186762 0)
(1.09238 0.0230792 0)
(1.10401 0.0273742 0)
(1.1165 0.0315552 0)
(1.12975 0.0356176 0)
(1.14373 0.0395575 0)
(0.996476 0.00145143 0)
(0.997605 -0.0127661 0)
(1.00752 -0.0195559 0)
(1.01482 -0.0211089 0)
(1.01909 -0.0196179 0)
(1.02202 -0.016087 0)
(1.02429 -0.0117418 0)
(1.02666 -0.00733231 0)
(1.02983 -0.00308833 0)
(1.03418 0.000948335 0)
(1.03985 0.00477999 0)
(1.04688 0.00841406 0)
(1.05524 0.0118882 0)
(1.06483 0.0152301 0)
(1.07555 0.0184525 0)
(1.08729 0.0215604 0)
(1.0999 0.0245585 0)
(1.11336 0.0274477 0)
(0.995486 -0.00977332 0)
(0.996092 -0.0206797 0)
(1.00447 -0.0226248 0)
(1.00684 -0.0226981 0)
(1.00465 -0.0204147 0)
(1.00103 -0.0162765 0)
(0.997406 -0.0118392 0)
(0.994887 -0.00782675 0)
(0.994208 -0.00428488 0)
(0.995574 -0.00112038 0)
(0.998896 0.00173764 0)
(1.00411 0.00434161 0)
(1.01105 0.00677015 0)
(1.01952 0.00907138 0)
(1.02932 0.011268 0)
(1.04029 0.0133693 0)
(1.05226 0.0153817 0)
(1.06517 0.0173058 0)
(1.01553 -0.0656682 0)
(1.00993 -0.0612762 0)
(0.998415 -0.0348007 0)
(0.980888 -0.0240755 0)
(0.963011 -0.0191161 0)
(0.947511 -0.0144469 0)
(0.935081 -0.0102355 0)
(0.926247 -0.00686227 0)
(0.921086 -0.00417278 0)
(0.919203 -0.00195569 0)
(0.920039 -0.000138161 0)
(0.923389 0.00145617 0)
(0.92886 0.00291648 0)
(0.936091 0.00428274 0)
(0.94481 0.00557497 0)
(0.954807 0.00679939 0)
(0.965879 0.00795611 0)
(0.977986 0.00904252 0)
(0.965185 0.261202 0)
(0.969078 0.0925047 0)
(0.913559 0.0124659 0)
(0.842609 -0.00619262 0)
(0.78978 -0.00732891 0)
(0.755494 -0.00504475 0)
(0.732911 -0.00296552 0)
(0.71808 -0.00159288 0)
(0.709006 -0.000676228 0)
(0.704272 5.17153e-06 0)
(0.702924 0.000446622 0)
(0.703764 0.000851574 0)
(0.7065 0.00126394 0)
(0.710941 0.0016749 0)
(0.716885 0.00207821 0)
(0.724149 0.00246831 0)
(0.73252 0.00283589 0)
(0.741921 0.00317794 0)
(0.0355864 -0.036565 -5.50915e-21)
(0.0819249 -0.0624684 4.06244e-21)
(0.134948 -0.06862 0)
(0.190909 -0.0658343 0)
(0.238091 -0.0578032 0)
(0.274208 -0.0463978 -3.01626e-21)
(0.29954 -0.0329806 0)
(0.314386 -0.0185947 0)
(0.319242 -0.00425676 0)
(0.313808 0.00822272 0)
(0.299999 0.0162827 3.09817e-21)
(0.283229 0.0143806 0)
(0.260901 0.0197667 0)
(0.233545 0.0252927 0)
(0.209472 0.0210292 0)
(0.176052 0.0257271 3.70749e-21)
(0.149024 0.0224805 0)
(0.120068 0.0206415 0)
(0.0840963 0.0235645 0)
(0.0404569 0.0154213 0)
(-0.00742783 0.0356296 0)
(-0.0470481 0.0467722 0)
(-0.121849 0.0493578 0)
(-0.20272 0.0544377 5.67108e-21)
(-0.290377 0.101929 -5.04703e-21)
(-0.382811 0.114582 5.56646e-21)
(-0.510665 0.103386 5.98783e-21)
(-0.626889 0.117578 0)
(-0.754486 0.127234 0)
(-0.885486 0.132939 -6.13993e-21)
(-1.01708 0.135116 -6.27683e-21)
(-1.14685 0.134255 0)
(-1.27287 0.1309 0)
(-1.39365 0.125607 -6.83591e-21)
(-1.50811 0.118906 0)
(-1.61552 0.111269 0)
(-1.71545 0.103091 7.44185e-21)
(-1.80772 0.094682 0)
(-1.89234 0.0862697 7.79954e-21)
(-1.96945 0.0780085 1.59124e-20)
(-2.03926 0.0699918 0)
(-2.10204 0.0622654 0)
(-2.15808 0.0548399 0)
(-2.20764 0.0477035 0)
(-2.25097 0.0408327 0)
(-2.2883 0.0342022 1.70635e-20)
(-2.31978 0.0277941 1.71309e-20)
(-2.34556 0.0216084 1.7163e-20)
(-2.36577 0.0156779 0)
(-2.38051 0.0100877 -1.71243e-20)
(-2.38985 0.00497955 0)
(-2.39379 0.000502005 1.69432e-20)
(-2.3926 -0.0032888 1.67749e-20)
(-2.38762 -0.00654279 0)
(-2.37869 -0.00957552 0)
(-2.36598 -0.0124994 0)
(-2.34954 -0.0153709 1.56706e-20)
(-2.32938 -0.0182169 0)
(-2.30549 -0.0210508 0)
(-2.27786 -0.0238796 0)
(-2.24647 -0.0267063 0)
(-2.2113 -0.029532 0)
(-2.17233 -0.0323558 0)
(-2.12955 -0.035176 0)
(-2.08294 -0.0379896 0)
(-2.03252 -0.0407927 -1.05212e-20)
(-1.97829 -0.0435809 0)
(-1.92028 -0.0463486 0)
(-1.85852 -0.0490897 7.97734e-21)
(-1.79305 -0.0517975 7.04106e-21)
(-1.72394 -0.0544645 0)
(-1.65128 -0.0570828 -5.04263e-21)
(-1.57514 -0.0596441 3.98349e-21)
(-1.49566 -0.0621398 0)
(-1.41295 -0.064561 -1.75487e-21)
(-1.32718 -0.066899 0)
(-1.23851 -0.069145 0)
(-1.14714 -0.0712908 -1.82734e-21)
(-1.05327 -0.0733287 0)
(-0.957139 -0.0752517 4.34017e-21)
(-0.858994 -0.0770536 0)
(-0.759099 -0.0787294 -6.91929e-21)
(-0.657732 -0.0802743 -8.22354e-21)
(-0.555188 -0.0816827 -9.53178e-21)
(-0.451775 -0.0829445 -2.16788e-20)
(-0.347831 -0.0840331 2.42833e-20)
(-0.243758 -0.084859 0)
(-0.140033 -0.0851413 0)
(-0.0371758 -0.0843025 0)
(0.0646622 -0.0819415 3.12629e-20)
(0.165491 -0.0787204 2.983e-20)
(0.264956 -0.0753185 -2.83098e-20)
(0.362594 -0.0719158 0)
(0.458093 -0.068538 2.51022e-20)
(0.551211 -0.0651927 2.34523e-20)
(0.641731 -0.0618878 2.17924e-20)
(0.729461 -0.0586309 0)
(0.814238 -0.0554306 0)
(0.895928 -0.0522958 0)
(0.974421 -0.0492354 1.52875e-20)
(1.04964 -0.0462574 0)
(1.12153 -0.0433683 0)
(1.19006 -0.0405725 -1.07842e-20)
(1.25521 -0.0378717 0)
(1.31697 -0.0352653 0)
(1.37536 -0.0327494 -6.75709e-21)
(1.43037 -0.0303174 0)
(1.482 -0.0279595 0)
(1.53024 -0.0256636 3.27779e-21)
(1.57504 -0.0234149 2.24811e-21)
(1.61635 -0.0211956 0)
(1.65407 -0.0189849 -3.94858e-22)
(1.68807 -0.0167653 0)
(1.71817 -0.0145024 -1.16708e-21)
(1.74412 -0.012125 0)
(1.76544 -0.00968552 -2.40936e-21)
(1.78198 -0.00697384 -2.89939e-21)
(1.79324 -0.00291622 0)
(1.79451 0.0027548 0)
(1.78553 0.00870408 0)
(1.76813 0.0359105 0)
(1.73378 0.0689615 0)
(1.6781 0.0842053 0)
(1.6093 0.0819413 0)
(1.52839 0.067096 -2.41928e-21)
(1.43958 0.0591563 1.80847e-21)
(1.3425 0.0568611 0)
(1.23605 0.0574319 0)
(1.12214 0.0581745 0)
(1.00438 0.0568138 0)
(0.887003 0.052193 -4.1818e-21)
(0.774125 0.0444279 0)
(0.669408 0.0346362 6.71055e-21)
(0.575961 0.0245137 -7.69025e-21)
(0.496331 0.0158329 0)
(0.432163 0.0097492 0)
(0.383387 0.00637798 0)
(0.347773 0.00501227 9.79654e-21)
(0.321664 0.00470487 9.93386e-21)
(0.301387 0.00475405 0)
(0.284294 0.00479649 9.90023e-21)
(0.269003 0.0046802 9.78387e-21)
(0.255074 0.00437348 -9.63432e-21)
(0.242545 0.00390829 0)
(0.231597 0.00333966 0)
(0.222374 0.0027228 -9.16042e-21)
(0.214926 0.00210366 0)
(0.209209 0.00151667 0)
(0.205106 0.000985822 0)
(0.202453 0.000527141 0)
(0.201055 0.000150652 8.70534e-21)
(0.20071 -0.000147021 8.6665e-21)
(0.201223 -0.000415281 0)
(0.202463 -0.000631661 8.61273e-21)
(0.204275 -0.000789482 0)
(0.206503 -0.000893626 0)
(0.20901 -0.000952165 8.56678e-21)
(0.211679 -0.000973435 0)
(0.21441 -0.00096521 8.53549e-21)
(0.217126 -0.000934435 0)
(0.219765 -0.000887093 0)
(0.222278 -0.000828135 8.46586e-21)
(0.224633 -0.000761496 0)
(0.226805 -0.000690176 8.40083e-21)
(0.228778 -0.00061638 0)
(0.230544 -0.000541644 0)
(0.232096 -0.00046691 0)
(0.233434 -0.000392443 -8.23355e-21)
(0.234555 -0.000317627 0)
(0.235458 -0.000239134 8.13856e-21)
(0.236142 -0.000146526 0)
(0.236556 -7.39902e-05 0)
(0.236694 -7.48234e-06 0)
(0.236533 7.93258e-05 0)
(0.236021 0.000199482 0)
(0.23502 0.000374491 0)
(0.233417 0.000644501 0)
(0.230337 0.00111814 -1.56336e-20)
(0.226853 0.00204345 0)
(0.212069 0.00453263 0)
(0.0352075 -0.170256 1.59745e-20)
(0.0914846 -0.202606 -1.19534e-20)
(0.138822 -0.180874 0)
(0.177715 -0.149995 5.86697e-21)
(0.206056 -0.117357 0)
(0.224189 -0.084788 2.52889e-21)
(0.233409 -0.0533758 -5.16271e-21)
(0.234781 -0.0239277 -5.1241e-21)
(0.228994 0.00289216 0)
(0.217309 0.0263267 -5.10291e-21)
(0.199284 0.0459158 -2.58882e-21)
(0.174646 0.0619249 0)
(0.140887 0.0747153 0)
(0.103198 0.0821449 0)
(0.0556796 0.090238 0)
(0.00246061 0.0953109 -3.21975e-21)
(-0.0592722 0.104124 0)
(-0.133836 0.118246 6.08511e-21)
(-0.217672 0.134016 0)
(-0.3144 0.152231 0)
(-0.417406 0.174068 -5.6062e-21)
(-0.540547 0.207524 0)
(-0.67033 0.239115 5.7462e-21)
(-0.808513 0.269093 -3.02246e-21)
(-0.943386 0.293902 2.99754e-21)
(-1.08878 0.31805 -3.07378e-21)
(-1.2262 0.330632 -3.13523e-21)
(-1.35851 0.336933 0)
(-1.48295 0.335997 0)
(-1.598 0.328816 3.5547e-21)
(-1.70344 0.316675 -4.05341e-21)
(-1.79915 0.300808 0)
(-1.88531 0.282376 0)
(-1.96235 0.262403 4.42445e-21)
(-2.03087 0.241735 0)
(-2.09157 0.221033 0)
(-2.14518 0.200783 -5.09858e-21)
(-2.19239 0.181313 0)
(-2.23385 0.162819 5.71243e-21)
(-2.27014 0.145398 -1.13133e-20)
(-2.30174 0.129067 0)
(-2.32907 0.11379 0)
(-2.35249 0.0994966 -2.45149e-20)
(-2.3723 0.0860939 -2.48676e-20)
(-2.38873 0.0734806 -2.51497e-20)
(-2.40201 0.0615546 1.28229e-20)
(-2.41234 0.0502179 -1.26094e-20)
(-2.41988 0.0393821 -3.82199e-20)
(-2.42482 0.028981 2.55804e-20)
(-2.42733 0.0189978 1.26048e-20)
(-2.42758 0.00948381 0)
(-2.42572 0.000531816 -1.24149e-20)
(-2.42163 -0.00782788 1.25737e-20)
(-2.41421 -0.0157004 0)
(-2.40345 -0.0232822 0)
(-2.3892 -0.0306724 0)
(-2.37138 -0.0379321 -1.12499e-20)
(-2.34995 -0.0450944 0)
(-2.32487 -0.0521767 2.15988e-20)
(-2.29611 -0.0591866 0)
(-2.26365 -0.0661254 2.00167e-20)
(-2.22745 -0.0729898 0)
(-2.18751 -0.079773 -1.81941e-20)
(-2.14381 -0.0864653 0)
(-2.09633 -0.0930544 1.61449e-20)
(-2.04509 -0.0995257 -7.90849e-21)
(-1.99009 -0.105863 0)
(-1.93136 -0.112046 -1.26881e-20)
(-1.86893 -0.118056 -5.27069e-21)
(-1.80285 -0.12387 -4.60853e-21)
(-1.73318 -0.129466 0)
(-1.65999 -0.134817 -4.26853e-21)
(-1.5834 -0.1399 -2.52783e-21)
(-1.5035 -0.144688 0)
(-1.42044 -0.149154 1.08819e-21)
(-1.33436 -0.153275 -1.92254e-21)
(-1.24544 -0.157023 0)
(-1.15386 -0.160375 1.09007e-21)
(-1.05984 -0.163309 0)
(-0.96361 -0.165804 -6.20044e-21)
(-0.865415 -0.167844 0)
(-0.765522 -0.169413 1.02496e-20)
(-0.664214 -0.170499 4.54027e-21)
(-0.561789 -0.171094 -3.7134e-21)
(-0.458556 -0.171186 -8.58832e-21)
(-0.354833 -0.170761 9.69298e-21)
(-0.250928 -0.169785 0)
(-0.1471 -0.168175 0)
(-0.0436245 -0.165795 0)
(0.0591234 -0.162532 -4.4547e-20)
(0.160714 -0.158548 -1.56465e-20)
(0.260819 -0.154104 1.53495e-20)
(0.359222 -0.149325 0)
(0.455675 -0.144274 1.20778e-20)
(0.54993 -0.138997 -1.38639e-20)
(0.641763 -0.133536 -1.32093e-20)
(0.730977 -0.127933 0)
(0.817403 -0.122231 0)
(0.9009 -0.116473 0)
(0.981357 -0.110698 -1.0088e-20)
(1.05869 -0.104942 0)
(1.13283 -0.0992377 1.53486e-20)
(1.20375 -0.0936092 2.11846e-20)
(1.27141 -0.0880741 -1.20468e-20)
(1.33582 -0.0826422 0)
(1.39695 -0.0773147 -3.89175e-21)
(1.45482 -0.0720847 0)
(1.50939 -0.0669373 -5.64023e-21)
(1.56067 -0.0618496 1.68506e-21)
(1.60859 -0.0567919 9.97874e-22)
(1.65311 -0.051727 0)
(1.69412 -0.0466112 3.3189e-22)
(1.7315 -0.0413951 1.18543e-21)
(1.76508 -0.0360099 9.15181e-22)
(1.79465 -0.0303605 0)
(1.82002 -0.02439 1.9185e-21)
(1.8408 -0.0178215 7.31683e-21)
(1.85687 -0.00990557 0)
(1.87091 -0.000807176 6.09949e-21)
(1.88057 0.00808761 6.31261e-21)
(1.88277 0.015634 6.1442e-21)
(1.87952 0.0259655 0)
(1.86966 0.0407584 0)
(1.84453 0.0570403 0)
(1.80213 0.0751519 -1.99411e-21)
(1.73965 0.0927624 -1.44813e-21)
(1.65764 0.107424 0)
(1.55763 0.118627 -4.36284e-22)
(1.44165 0.125824 9.25135e-22)
(1.31352 0.128421 0)
(1.17871 0.126276 3.23535e-21)
(1.04353 0.119742 8.96675e-21)
(0.914106 0.109451 -5.21895e-21)
(0.795573 0.0961258 -6.2269e-21)
(0.691737 0.0806076 0)
(0.60491 0.0640709 0)
(0.535674 0.0482795 0)
(0.482597 0.0352358 -8.10702e-21)
(0.442459 0.026109 8.48315e-21)
(0.41126 0.0206318 1.69884e-20)
(0.385516 0.0175902 -8.39621e-21)
(0.363023 0.0156933 8.46811e-21)
(0.342844 0.014086 8.18746e-21)
(0.324821 0.0123951 0)
(0.309095 0.010559 0)
(0.295809 0.00865237 -7.85739e-21)
(0.284993 0.00677834 0)
(0.276561 0.0050224 0)
(0.270335 0.00344093 1.49835e-20)
(0.266086 0.00206426 0)
(0.263566 0.000904228 7.37235e-21)
(0.262524 -4.25431e-05 -7.33005e-21)
(0.262724 -0.00081612 0)
(0.263897 -0.0014208 7.26283e-21)
(0.265816 -0.00186655 0)
(0.26829 -0.00217118 0)
(0.271155 -0.00235563 -7.24071e-21)
(0.274267 -0.00244077 1.44373e-20)
(0.277505 -0.00244617 -7.22101e-21)
(0.280772 -0.00238949 0)
(0.283988 -0.0022862 0)
(0.287093 -0.00214942 7.15426e-21)
(0.290039 -0.00198988 0)
(0.292795 -0.00181608 7.11337e-21)
(0.295338 -0.00163449 0)
(0.297654 -0.00144982 0)
(0.299734 -0.00126519 0)
(0.301574 -0.00108218 7.0133e-21)
(0.303173 -0.000900709 0)
(0.304529 -0.000718463 -6.9427e-21)
(0.305635 -0.00052832 0)
(0.3065 -0.000337157 0)
(0.307108 -0.000135311 1.36598e-20)
(0.30742 9.66176e-05 -1.35899e-20)
(0.307387 0.000384554 0)
(0.306911 0.000771165 0)
(0.305923 0.00135152 0)
(0.303882 0.00227719 4.01778e-20)
(0.301648 0.00418992 0)
(0.29391 0.00818185 -2.67965e-20)
(0.0278811 -0.290115 1.12223e-23)
(0.0671717 -0.303674 1.4681e-20)
(0.0908262 -0.254245 0)
(0.107483 -0.200091 -1.06087e-20)
(0.116753 -0.147482 0)
(0.118549 -0.0974187 0)
(0.113311 -0.0504007 -5.56079e-23)
(0.10136 -0.006827 4.66095e-21)
(0.0827888 0.0330163 4.65492e-21)
(0.0575141 0.0690948 4.69767e-21)
(0.0251666 0.101599 0)
(-0.0148765 0.131131 0)
(-0.0638173 0.158525 -4.60885e-21)
(-0.121486 0.18385 -8.96481e-21)
(-0.189873 0.209445 8.71933e-21)
(-0.26888 0.236225 0)
(-0.359163 0.2662 8.20969e-21)
(-0.46059 0.299978 -4.13702e-21)
(-0.572104 0.336676 0)
(-0.692961 0.375786 7.92233e-21)
(-0.819813 0.416312 3.97011e-21)
(-0.949613 0.455369 -8.17664e-21)
(-1.07759 0.48791 -4.04754e-21)
(-1.20132 0.513097 0)
(-1.31708 0.529763 9.31954e-21)
(-1.42335 0.535828 9.84075e-21)
(-1.51979 0.530701 0)
(-1.60714 0.517789 1.1119e-20)
(-1.68511 0.498455 0)
(-1.7546 0.473931 1.25185e-20)
(-1.81674 0.445708 6.06606e-21)
(-1.87267 0.415202 0)
(-1.92345 0.383646 0)
(-1.96996 0.352031 0)
(-2.0129 0.321099 0)
(-2.05279 0.291363 0)
(-2.08999 0.263135 0)
(-2.12472 0.236571 1.74613e-20)
(-2.15712 0.21171 -2.66432e-20)
(-2.18726 0.188506 0)
(-2.21513 0.166861 0)
(-2.24072 0.146648 0)
(-2.264 0.127725 -2.86496e-22)
(-2.28493 0.109954 1.92107e-20)
(-2.30345 0.0932023 3.90465e-20)
(-2.31952 0.0773511 -3.93043e-20)
(-2.33308 0.0622968 -1.98536e-20)
(-2.34409 0.0479487 1.96374e-20)
(-2.35248 0.0342245 2.54268e-22)
(-2.35814 0.0210386 1.98054e-20)
(-2.36094 0.00828886 0)
(-2.36074 -0.00415831 1.94927e-20)
(-2.35737 -0.0164357 3.22129e-22)
(-2.3507 -0.0286035 0)
(-2.34071 -0.0406314 0)
(-2.32733 -0.0525194 -1.81801e-20)
(-2.31049 -0.0642762 0)
(-2.29016 -0.0759112 0)
(-2.26627 -0.0874294 1.71389e-20)
(-2.2388 -0.098831 3.22026e-20)
(-2.20771 -0.110111 -1.49709e-20)
(-2.17297 -0.121259 0)
(-2.13455 -0.132261 1.35269e-20)
(-2.09243 -0.143099 0)
(-2.04661 -0.15375 1.31218e-20)
(-1.99708 -0.16419 1.10722e-20)
(-1.94385 -0.174387 -2.16716e-20)
(-1.88694 -0.184312 -1.06213e-20)
(-1.82637 -0.193929 0)
(-1.7622 -0.2032 1.61897e-20)
(-1.69448 -0.212086 0)
(-1.6233 -0.220547 1.77308e-20)
(-1.54873 -0.228538 1.03711e-20)
(-1.47089 -0.236017 8.39346e-21)
(-1.3899 -0.242939 -6.41124e-21)
(-1.30593 -0.249263 5.79109e-21)
(-1.21913 -0.254945 0)
(-1.12969 -0.259944 0)
(-1.03782 -0.264225 1.37625e-21)
(-0.943739 -0.267751 5.78878e-21)
(-0.847701 -0.270494 0)
(-0.749965 -0.272426 -4.35526e-21)
(-0.650809 -0.273528 0)
(-0.550529 -0.273785 1.60709e-20)
(-0.44943 -0.273187 1.97614e-21)
(-0.347824 -0.271728 -1.99045e-21)
(-0.246017 -0.269406 -1.42633e-20)
(-0.144287 -0.266224 0)
(-0.0429129 -0.262227 1.64507e-20)
(0.057788 -0.257486 1.96049e-21)
(0.157465 -0.252029 0)
(0.255801 -0.245904 0)
(0.352538 -0.239177 0)
(0.447414 -0.231918 -1.83305e-20)
(0.540178 -0.224197 0)
(0.630605 -0.216089 0)
(0.718496 -0.207671 0)
(0.803683 -0.199018 0)
(0.886026 -0.190206 0)
(0.965412 -0.181304 -1.24345e-20)
(1.04176 -0.172376 0)
(1.115 -0.163477 -1.14429e-20)
(1.1851 -0.154651 -1.02961e-20)
(1.25203 -0.145931 9.12476e-21)
(1.31578 -0.137335 0)
(1.37634 -0.12887 6.74949e-21)
(1.43371 -0.120528 0)
(1.48787 -0.112288 4.39411e-21)
(1.53879 -0.104117 -3.24608e-21)
(1.58644 -0.0959693 -5.20016e-21)
(1.63075 -0.0877903 0)
(1.67164 -0.0795138 9.47173e-22)
(1.70897 -0.0710635 1.88419e-21)
(1.74261 -0.0623488 0)
(1.77236 -0.0532623 6.16908e-21)
(1.79803 -0.0436866 7.59702e-21)
(1.81932 -0.03355 -1.29265e-20)
(1.83584 -0.022807 0)
(1.84768 -0.0109164 -5.05749e-21)
(1.8547 0.00284253 -5.26479e-21)
(1.85667 0.0193044 -1.61864e-20)
(1.85428 0.0396017 0)
(1.84784 0.0638089 0)
(1.83536 0.0897528 0)
(1.81215 0.115745 -4.4496e-21)
(1.77423 0.141842 0)
(1.72009 0.167447 0)
(1.64811 0.190668 3.86708e-22)
(1.5573 0.208962 -8.17656e-22)
(1.44884 0.219804 0)
(1.32646 0.221568 0)
(1.19603 0.214033 -7.85124e-21)
(1.06439 0.198208 0)
(0.938105 0.175804 1.06653e-20)
(0.822547 0.148901 1.18469e-20)
(0.721467 0.120057 0)
(0.636838 0.0924207 0)
(0.568749 0.0691375 -1.45637e-20)
(0.515466 0.0520968 1.84262e-22)
(0.473925 0.0411495 1.74459e-22)
(0.440711 0.0345873 0)
(0.413062 0.0303503 -2.98061e-20)
(0.38931 0.026921 0)
(0.368704 0.0235422 0)
(0.351003 0.0200167 0)
(0.336139 0.0164258 1.35916e-20)
(0.324039 0.01293 0)
(0.314558 0.00967161 -2.63266e-20)
(0.307487 0.00674442 -1.29543e-20)
(0.302572 0.00419534 0)
(0.299537 0.00203477 -1.27168e-20)
(0.298104 0.000247038 0)
(0.298002 -0.00118664 0)
(0.298969 -0.00230033 -3.75604e-20)
(0.30077 -0.00312757 2.49555e-20)
(0.3032 -0.0037045 0)
(0.306081 -0.00406834 2.48633e-20)
(0.309258 -0.00425517 -1.24358e-20)
(0.312602 -0.00429869 0)
(0.316004 -0.0042295 0)
(0.319377 -0.00407458 0)
(0.322652 -0.00385706 -3.70598e-20)
(0.325779 -0.00359616 0)
(0.328718 -0.00330733 -1.23053e-20)
(0.331444 -0.00300254 0)
(0.33394 -0.00269065 0)
(0.336196 -0.00237772 0)
(0.338207 -0.00206726 0)
(0.33997 -0.00176025 0)
(0.341484 -0.0014548 0)
(0.342746 -0.0011462 -2.39132e-20)
(0.343756 -0.000825502 0)
(0.344504 -0.000483346 -1.18492e-20)
(0.34496 -0.000100973 3.53643e-20)
(0.345083 0.000357303 0)
(0.344797 0.000949567 0)
(0.344054 0.00179287 -2.32978e-20)
(0.342493 0.00307633 -2.32615e-20)
(0.340845 0.00540779 2.32523e-20)
(0.336053 0.00983937 2.32733e-20)
(0.00898492 -0.362251 -2.62655e-20)
(0.026704 -0.334578 -1.97208e-20)
(0.0263518 -0.268879 -1.0653e-20)
(0.0221138 -0.202564 -4.61398e-21)
(0.0132946 -0.138196 0)
(-0.000708752 -0.0763295 8.56873e-21)
(-0.0202561 -0.017286 -4.06918e-21)
(-0.0457561 0.0387263 0)
(-0.0777302 0.0916747 -4.10705e-21)
(-0.11681 0.141758 0)
(-0.163639 0.189418 7.58111e-21)
(-0.218851 0.235293 0)
(-0.28309 0.280089 3.69512e-21)
(-0.35684 0.324546 7.13716e-21)
(-0.44044 0.369696 -6.88801e-21)
(-0.533514 0.416123 0)
(-0.635147 0.464022 -6.46686e-21)
(-0.743516 0.51246 0)
(-0.856052 0.559534 0)
(-0.969755 0.603037 -6.30943e-21)
(-1.08114 0.64069 0)
(-1.18694 0.669861 -7.11452e-22)
(-1.28467 0.688284 0)
(-1.373 0.695395 0)
(-1.4514 0.691692 1.03088e-21)
(-1.52056 0.678078 -8.10053e-21)
(-1.5817 0.655975 -9.7393e-21)
(-1.6364 0.627823 -9.18294e-21)
(-1.68588 0.595428 0)
(-1.73137 0.56032 -2.16762e-20)
(-1.77387 0.523787 0)
(-1.8142 0.486869 -1.23406e-20)
(-1.8529 0.450355 0)
(-1.89032 0.414812 0)
(-1.92664 0.380611 1.37018e-20)
(-1.96188 0.347967 0)
(-1.99599 0.316977 -1.44969e-20)
(-2.02886 0.287648 4.88589e-22)
(-2.06033 0.259927 2.99326e-20)
(-2.09025 0.233721 -3.09883e-20)
(-2.11845 0.208912 0)
(-2.14477 0.185372 0)
(-2.16906 0.162968 -1.65633e-20)
(-2.1912 0.141573 0)
(-2.21106 0.121065 -1.62344e-20)
(-2.22851 0.101331 1.63504e-20)
(-2.24346 0.0822684 1.64275e-20)
(-2.25579 0.0637857 0)
(-2.26539 0.0458006 -1.64631e-20)
(-2.27216 0.0282382 -1.64207e-20)
(-2.27598 0.0110263 3.33055e-20)
(-2.27677 -0.00591747 -1.61684e-20)
(-2.27444 -0.0226587 -1.59536e-20)
(-2.26893 -0.0392439 0)
(-2.2602 -0.0556846 0)
(-2.24819 -0.0719883 1.50642e-20)
(-2.23283 -0.0881599 0)
(-2.21407 -0.104202 0)
(-2.19187 -0.120112 -2.76224e-20)
(-2.16616 -0.135883 -2.66324e-20)
(-2.13692 -0.151504 0)
(-2.1041 -0.166957 0)