/*--------------------------------*- C++ -*----------------------------------*\
  =========                 |
  \\      /  F ield         | OpenFOAM: The Open Source CFD Toolbox
   \\    /   O peration     | Website:  https://openfoam.org
    \\  /    A nd           | Version:  9
     \\/     M anipulation  |
\*---------------------------------------------------------------------------*/
FoamFile
{
    format      ascii;
    class       volScalarField;
    location    "0.2";
    object      epsilon;
}
// * * * * * * * * * * * * * * * * * * * * * * * * * * * * * * * * * * * * * //

dimensions      [0 2 -3 0 0 0 0];

internalField   nonuniform List<scalar> 
12225
(
210.109
126.695
82.2382
58.9355
46.4484
39.2834
34.7028
31.4279
28.8861
26.8142
25.0766
23.5927
22.3094
21.1907
20.2125
19.3627
18.724
19.2599
35.281
48.6924
73.4469
89.8999
100.583
108.253
114.26
119.428
124.306
129.306
134.797
141.195
149.083
159.464
174.407
199.128
253.918
412.602
27.4193
56.3074
105.886
146.725
176.366
196.894
210.542
219.451
225.307
229.353
232.516
235.547
239.194
244.5
253.436
270.701
308.704
401.187
23.217
36.3102
60.0345
83.3007
102.38
116.653
126.584
133.116
137.203
139.67
141.204
142.423
143.982
146.782
152.336
163.481
184.775
222.833
22.185
27.9341
35.4233
44.4697
53.0062
60.0324
65.2778
68.9367
71.3742
72.992
74.1883
75.3727
77.0202
79.7689
84.5568
92.8167
105.555
122.279
21.9999
25.9222
27.0405
29.2751
31.961
34.567
36.7462
38.4314
39.7134
40.7595
41.7773
43.0109
44.7593
47.4093
51.462
57.5586
65.4209
73.306
21.6757
25.4277
24.6829
24.303
24.2699
24.5953
25.0699
25.583
26.1214
26.7379
27.5289
28.6255
30.1946
32.4409
35.5992
39.9161
44.6873
48.6553
21.1403
24.8533
23.9356
22.8924
21.8232
21.1275
20.7612
20.6486
20.7514
21.0724
21.6464
22.5321
23.8067
25.5583
27.8722
30.8008
33.5625
35.5578
20.6212
24.1718
23.5648
22.6355
21.356
20.3314
19.6434
19.2661
19.1664
19.3265
19.7452
20.4334
21.4078
22.6833
24.2625
26.0981
27.4664
28.2377
20.3331
23.9179
23.8156
23.1707
21.9341
20.8392
20.0569
19.5949
19.419
19.4913
19.7804
20.2616
20.9124
21.7072
22.6112
23.531
23.848
23.6707
21.6056
24.9115
24.6026
23.827
22.464
21.2897
20.463
19.9562
19.6964
19.6129
19.6504
19.7697
19.9439
20.153
20.3801
20.5512
20.2423
19.7166
22.9357
25.4585
24.6391
23.8355
22.6682
21.7183
21.0104
20.4523
19.9544
19.4575
18.9343
18.3844
17.8296
17.3086
16.8758
16.5473
16.1812
16.3858
23.6142
25.1566
24.5719
24.6709
24.4699
24.1383
23.6494
22.964
22.0792
21.0241
19.8507
18.6276
17.4357
16.3658
15.5185
14.9413
14.8129
15.4013
23.3618
23.476
23.1682
23.7698
24.274
24.3873
24.0579
23.3206
22.2625
20.9898
19.612
18.2357
16.9619
15.8853
15.0986
14.5962
14.6966
15.3157
21.9515
21.3643
20.8035
20.4188
20.1332
19.8449
19.4281
18.8393
18.0999
17.2663
16.4088
15.5994
14.9044
14.3829
14.0967
13.954
14.2994
14.7992
20.1278
19.9841
19.9255
19.0067
18.1601
17.4299
16.7748
16.1578
15.569
15.0199
14.5332
14.1357
13.8519
13.705
13.7309
13.7609
14.1983
14.4875
18.0465
18.7083
19.5803
18.7047
17.8036
16.9741
16.2471
15.6207
15.0902
14.655
14.3174
14.0802
13.9446
13.9146
14.0135
14.0165
14.4021
14.438
16.1402
17.3369
18.9298
18.2041
17.4036
16.6525
16.0036
15.4669
15.0375
14.7075
14.4682
14.3108
14.2261
14.2113
14.2867
14.1995
14.4784
14.2928
14.9292
16.0597
17.8017
17.2009
16.5748
16.0144
15.5512
15.1819
14.8928
14.6697
14.4997
14.3722
14.278
14.2165
14.2109
14.014
14.1333
13.7766
14.7852
15.0922
15.9576
15.4693
15.0731
14.7648
14.5274
14.3314
14.1541
13.9829
13.8123
13.6413
13.4711
13.3092
13.1816
12.907
12.835
12.4554
14.9709
14.7674
14.9834
14.5423
14.2069
13.9377
13.7011
13.4674
13.2254
12.9738
12.7164
12.459
12.2086
11.975
11.7821
11.5011
11.3677
11.0452
15.1676
14.7784
14.6422
14.3013
14.0039
13.7195
13.426
13.1079
12.7663
12.411
12.0541
11.7078
11.3824
11.0879
10.845
10.5672
10.3969
10.1186
15.369
15.0521
14.7487
14.5146
14.2169
13.8726
13.4873
13.0669
12.6257
12.1807
11.7476
11.3403
10.9694
10.6442
10.3803
10.1254
9.93711
9.69856
15.6564
15.6562
15.2917
15.0439
14.6414
14.178
13.6844
13.1789
12.6783
12.1974
11.7483
11.3407
10.9825
10.6809
10.4477
10.2604
10.099
9.91957
16.097
16.5171
16.0849
15.6904
15.1743
14.6639
14.177
13.7183
13.2927
12.9052
12.5611
12.2654
12.0234
11.8415
11.73
11.6953
11.6479
11.5813
16.5882
17.3503
17.0846
16.8559
16.6811
16.5815
16.5083
16.4408
16.375
16.3155
16.2707
16.2502
16.2655
16.3299
16.4622
16.7034
16.9054
17.0409
16.9731
18.2769
19.8525
21.4557
23.0669
24.4949
25.6546
26.5649
27.2759
27.8416
28.3107
28.7257
29.1246
29.544
30.0299
30.6855
31.3383
31.8016
17.9912
21.6188
29.261
35.6694
40.87
44.8583
47.795
49.9431
51.5388
52.7673
53.769
54.6515
55.5003
56.3906
57.4055
58.7509
60.3909
61.6019
24.8762
28.4402
35.3823
39.5347
42.2766
44.1806
45.5266
46.5344
47.3659
48.1423
48.9557
49.8792
50.977
52.3123
53.962
56.1342
59.1432
62.0203
136.093
97.2197
71.7216
54.9006
43.7434
36.2801
31.1967
27.6265
25.0228
23.0508
21.5064
20.2632
19.2414
18.3947
17.6838
17.0808
16.5671
16.1418
2.17607
1.5207
2.16579
2.68685
3.11441
3.47013
3.76929
4.0233
4.24151
4.43258
4.60636
4.77599
4.9462
5.12285
5.31293
5.52454
5.76652
6.04913
6.37048
6.72273
7.09247
7.46064
7.80182
8.08744
8.29323
8.4112
8.46735
8.53391
8.69566
8.8937
9.02625
9.00881
8.81856
8.98249
9.23791
40.1227
9.30407
40.9702
41.34
44.3064
48.0308
51.8031
55.5861
59.3388
63.0334
66.6477
70.1653
73.5744
76.8671
80.0384
83.0858
86.0087
88.8076
91.4843
94.0409
96.4805
98.806
101.021
103.13
105.138
107.049
108.872
110.613
112.277
113.864
115.367
116.8
118.174
119.502
120.797
122.068
123.325
124.576
125.831
127.098
128.384
129.697
131.042
132.423
133.842
135.299
136.795
138.327
139.902
141.542
143.261
144.923
146.454
147.739
148.568
148.531
147.121
145.968
145.469
144.024
141.372
138.688
136.621
134.75
133.083
131.861
131.032
130.265
129.323
128.044
126.311
124.084
121.484
118.726
115.873
112.896
109.787
106.568
103.233
99.7599
96.1127
92.2576
88.1746
83.8606
79.3297
74.6121
69.7825
65.0476
60.9865
58.6558
58.4642
60.8026
59.786
58.0543
56.6262
58.3278
12.7184
56.6013
13.151
12.3254
13.0622
57.489
13.4626
13.3461
13.2965
13.2686
13.2607
13.2132
13.1545
13.107
13.079
13.0718
13.0851
13.1175
13.1662
13.2295
13.3059
13.3943
13.4941
13.6024
13.7153
13.8289
13.9388
14.0392
14.1246
14.1901
14.2316
14.2434
14.2173
14.1429
14.0127
13.8206
13.5606
13.224
12.8248
12.3915
11.9118
11.3906
10.8357
10.2567
9.66352
9.06522
8.46846
7.87037
7.26561
3.48649
19.5253
26.9958
30.0733
31.0119
30.8585
30.138
29.1322
27.997
26.8253
25.6849
24.6075
23.6108
22.7049
21.8884
21.178
20.5674
20.0693
19.723
19.5388
19.5157
19.6449
19.914
20.3082
20.8136
21.4216
22.138
22.9862
23.9896
25.169
26.5383
28.1551
30.1964
32.4986
35.2044
38.9209
42.1849
47.0445
51.9662
57.4057
63.7072
70.4396
77.5038
84.7519
92.0969
99.485
106.882
114.268
121.627
128.95
136.229
143.457
150.627
157.734
164.771
171.732
178.612
185.407
192.111
198.723
205.241
211.663
217.988
224.216
230.343
236.368
242.288
248.101
253.806
259.404
264.896
270.288
275.588
280.807
285.957
291.053
296.125
301.208
306.345
311.577
316.949
322.509
328.293
334.377
340.787
347.62
354.965
362.964
371.72
381.083
391.03
401.271
410.956
419.677
426.661
431.173
433.563
434.199
433.371
431.422
428.782
425.821
422.768
419.752
416.803
413.863
410.831
407.607
404.124
400.326
396.16
391.579
386.547
381.031
374.989
368.367
361.097
353.094
344.258
334.466
323.551
311.298
297.377
281.252
263.592
243.793
226.239
209.995
194.366
179.521
166.052
152.299
141.155
130.531
118.986
108.401
101.205
92.4649
84.7317
77.861
71.7839
66.4181
61.6819
57.504
53.8238
50.5882
47.7502
45.2647
43.0981
41.2119
39.5708
38.1418
36.8947
35.8018
34.8368
33.9744
33.1899
32.4597
31.7605
31.0702
30.3679
29.6349
28.8554
28.0164
27.1096
26.1334
25.0943
24.0184
22.9223
21.9542
21.1232
20.2772
19.3782
18.3957
17.317
16.1406
14.871
13.5088
12.0372
10.6993
5.23995
29.3741
40.1767
44.342
45.0578
44.0652
42.2424
40.0406
37.7024
35.376
33.1435
31.0517
29.1325
27.3997
25.8536
24.5001
23.3481
22.3977
21.6447
21.0817
20.697
20.4802
20.4209
20.5082
20.7341
21.0979
21.6077
22.2774
23.1186
24.1368
25.3391
26.7636
28.4269
30.3226
32.2396
34.5351
36.6409
39.3122
41.7538
44.7217
48.0196
51.7633
55.8583
60.2462
64.8698
69.6813
74.6399
79.7118
84.8695
90.0907
95.357
100.653
105.966
111.285
116.601
121.905
127.19
132.448
137.672
142.857
147.994
153.077
158.1
163.058
167.952
172.79
177.576
182.317
187.022
191.697
196.352
200.996
205.643
210.299
214.973
219.679
224.437
229.267
234.181
239.185
244.274
249.423
254.61
259.812
264.971
270.042
274.9
279.429
283.516
286.981
289.936
292.867
296.047
299.336
302.533
305.729
308.236
309.827
310.468
310.194
309.08
307.256
304.885
302.151
299.204
296.172
293.155
290.207
287.335
284.516
281.722
278.918
276.066
273.121
270.035
266.759
263.242
259.429
255.262
250.677
245.594
239.913
233.539
226.106
218.919
209.745
201.902
192.119
181.914
171.407
161.729
151.987
142.624
134.543
124.074
116.813
109.473
102.508
95.8734
89.7146
84.0944
79.0077
74.4375
70.3516
66.7147
63.4906
60.6441
58.1466
55.9769
54.1088
52.51
51.1514
50.0073
49.0552
48.274
47.6425
47.1403
46.7464
46.4396
46.1976
45.998
45.8173
45.6308
45.4126
45.1361
44.7782
44.3146
43.7248
42.9957
41.9096
40.3047
38.2597
35.8907
33.296
30.5567
27.7314
24.8502
21.8952
18.7652
15.3618
7.19637
40.3586
56.2618
62.0444
62.3005
59.9863
56.5343
52.6429
48.6796
44.8385
41.2227
37.8915
34.8658
32.1466
29.7284
27.6005
25.7488
24.1583
22.8119
21.6918
20.7806
20.0621
19.5209
19.1438
18.9211
18.8488
18.9274
19.1585
19.54
20.0651
20.7302
21.5438
22.5161
23.6327
24.8373
26.1133
27.4812
28.9064
30.4282
32.0898
33.9474
36.0196
38.2901
40.7348
43.3283
46.0452
48.8623
51.759
54.7179
57.725
60.7686
63.8395
66.9304
70.0354
73.1496
76.2688
79.3895
82.5085
85.6226
88.7289
91.8241
94.9048
97.9681
101.013
104.039
107.05
110.05
113.046
116.042
119.047
122.066
125.111
128.188
131.302
134.457
137.662
140.925
144.258
147.669
151.165
154.747
158.411
162.151
165.949
169.78
173.599
177.353
180.973
184.387
187.5
190.247
192.735
195.176
197.635
200.055
202.386
204.771
206.806
208.222
208.984
209.075
208.491
207.297
205.578
203.447
201.022
198.419
195.736
193.039
190.362
187.718
185.11
182.527
179.953
177.364
174.735
172.039
169.251
166.344
163.295
160.081
156.684
153.118
149.38
145.956
142.583
138.439
133.403
127.784
121.837
115.927
109.941
103.784
97.8583
92.4976
87.4188
82.4815
77.5893
72.8806
68.493
64.4677
60.8177
57.5309
54.5862
51.9581
49.6182
47.5406
45.7044
44.0874
42.6766
41.4554
40.403
39.5027
38.7394
38.0992
37.5688
37.1354
36.7859
36.5072
36.2853
36.1057
35.9534
35.8125
35.6661
35.4967
35.2868
35.0098
34.6433
34.1748
33.4902
32.4922
31.1901
29.6193
27.8367
25.8973
23.8455
21.7093
19.4885
17.1487
14.7097
9.32673
53.0794
76.0701
83.7248
83.0864
78.9069
73.3406
67.3801
61.5053
55.9468
50.8159
46.151
41.9504
38.1955
34.8595
31.9126
29.3245
27.0659
25.109
23.4276
21.9975
20.7968
19.8055
19.0068
18.3863
17.9333
17.6395
17.4978
17.4998
17.6361
17.8981
18.2821
18.7868
19.4039
20.1129
20.8949
21.7445
22.6561
23.6333
24.6898
25.8444
27.1027
28.459
29.9027
31.4223
33.0056
34.6413
36.319
38.0295
39.7652
41.5198
43.2885
45.0672
46.8531
48.6438
50.4376
52.2331
54.0289
55.8241
57.6176
59.4081
61.1944
62.9756
64.7514
66.5228
68.2916
70.0606
71.8332
73.613
75.4044
77.2124
79.0427
80.8989
82.7825
84.6944
86.6386
88.6235
90.6579
92.7474
94.8951
97.1035
99.3724
101.698
104.072
106.487
108.927
111.376
113.816
116.23
118.597
120.901
123.158
125.42
127.719
130.039
132.341
134.585
136.753
138.754
140.354
141.423
141.937
141.903
141.35
140.334
138.93
137.223
135.299
133.225
131.054
128.822
126.553
124.26
121.949
119.621
117.271
114.895
112.484
110.034
107.539
104.997
102.414
99.8264
97.3049
95.0422
93.097
90.9512
88.2859
85.1665
81.8261
78.3285
74.7594
70.9493
67.0779
63.7267
60.6997
57.7676
54.7429
51.7235
48.8305
46.1289
43.6492
41.3945
39.3593
37.53
35.8906
34.426
33.1203
31.961
30.9339
30.0324
29.2436
28.5556
27.9595
27.4463
27.0074
26.6347
26.3196
26.0539
25.8286
25.6345
25.4619
25.3008
25.1405
24.9701
24.7757
24.5382
24.2499
23.8973
23.4384
22.8327
22.0588
21.1173
20.0323
18.8322
17.5435
16.1864
14.7706
13.3052
11.8574
11.635
67.4799
99.7501
109.365
107.283
100.68
92.546
84.1672
76.111
68.6278
61.8094
55.6652
50.1678
45.274
40.9345
37.1001
33.7244
30.7641
28.1799
25.9362
24.0008
22.345
20.9431
19.772
18.8116
18.0441
17.4538
17.0269
16.7504
16.6121
16.6012
16.709
16.928
17.2493
17.6612
18.1513
18.7102
19.3311
20.0097
20.7456
21.5402
22.3923
23.2972
24.2485
25.2391
26.262
27.3105
28.3784
29.4605
30.5522
31.6498
32.7503
33.8515
34.9517
36.0498
37.1449
38.2365
39.3243
40.408
41.4874
42.5621
43.6321
44.6971
45.7575
46.814
47.868
48.9213
49.9759
51.0341
52.0983
53.1715
54.2566
55.3548
56.4673
57.5931
58.7365
59.9016
61.0929
62.3131
63.5638
64.8458
66.1587
67.5003
68.8669
70.2544
71.6586
73.0765
74.5078
75.9563
77.4298
78.9397
80.5043
82.1471
83.8813
85.6973
87.5681
89.4494
91.2865
93.0155
94.6011
95.9672
96.9779
97.5803
97.7717
97.5687
97.008
96.1386
95.0143
93.6873
92.2032
90.5988
88.9029
87.1373
85.3181
83.4566
81.56
79.6335
77.6805
75.7037
73.7063
71.6932
69.6756
67.6838
65.777
64.0493
62.554
61.0805
59.3935
57.4661
55.4037
53.2382
50.9955
48.6089
46.1357
43.9182
42.0204
40.2338
38.3834
36.4926
34.6309
32.8563
31.1968
29.6682
28.272
27.0039
25.8576
24.8252
23.8985
23.0679
22.3252
21.6623
21.0752
20.5542
20.0943
19.6901
19.3365
19.028
18.7593
18.525
18.3191
18.1356
17.9681
17.8099
17.654
17.4931
17.3157
17.1147
16.8879
16.6183
16.2929
15.8977
15.4106
14.8244
14.1477
13.3947
12.5805
11.7195
10.8247
9.91957
9.06134
13.9993
83.4284
127.217
138.781
134.737
125.21
114.108
102.989
92.4942
82.8695
74.1757
66.3912
59.4582
53.3062
47.8626
43.0584
38.8298
35.1194
31.8753
29.0513
26.6056
24.5009
22.7032
21.1822
19.9102
18.8624
18.0167
17.3533
16.8547
16.5054
16.2919
16.2023
16.2261
16.353
16.5726
16.8743
17.2485
17.6868
18.1818
18.7277
19.3195
19.9523
20.6205
21.3185
22.0404
22.7807
23.5343
24.2966
25.0637
25.8323
26.5994
27.363
28.1214
28.8733
29.6178
30.3545
31.0831
31.8035
32.5156
33.2195
33.9154
34.6033
35.2836
35.9566
36.623
37.2839
37.9403
38.5936
39.2452
39.8965
40.549
41.2042
41.8628
42.5252
43.1913
43.8633
44.5427
45.2315
45.9307
46.6408
47.3613
48.0912
48.8287
49.5717
50.3181
51.067
51.8194
52.5797
53.3564
54.1629
55.0163
55.9358
56.9394
58.0368
59.2249
60.4881
61.7997
63.1197
64.3991
65.5929
66.6612
67.588
68.3172
68.7734
68.9506
68.8572
68.5145
67.951
67.1983
66.2873
65.2458
64.0978
62.8634
61.5591
60.1983
58.7915
57.3471
55.8722
54.3727
52.8542
51.3236
49.7915
48.2794
46.8252
45.4784
44.2662
43.1062
41.876
40.5395
39.1313
37.6679
36.1539
34.5677
32.9345
31.4239
30.124
28.9287
27.722
26.489
25.2589
24.0672
22.9358
21.8787
20.9007
20.0024
19.1824
18.4374
17.7635
17.1549
16.606
16.1107
15.6665
15.2673
14.9091
14.5894
14.3051
14.0529
13.8293
13.6306
13.4531
13.2924
13.1442
13.0038
12.8664
12.7259
12.5771
12.4162
12.2369
12.028
11.7865
11.5065
11.1725
10.7775
10.3241
9.81958
9.27323
8.69571
8.09979
7.51009
6.96233
16.2893
100.728
158.307
171.673
165.253
152.417
138.021
123.888
110.714
98.7302
87.9663
78.3675
69.845
62.3005
55.6377
49.7668
44.6061
40.0825
36.1304
32.6909
29.7108
27.1423
24.9417
23.0694
21.4899
20.1709
19.0835
18.2026
17.5057
16.9736
16.5896
16.3392
16.2092
16.188
16.2643
16.4277
16.668
16.976
17.343
17.7611
18.2232
18.7225
19.2528
19.808
20.3825
20.971
21.5688
22.1718
22.7764
23.3793
23.9781
24.5706
25.1551
25.7305
26.2958
26.8505
27.3941
27.9265
28.4477
28.9577
29.4568
29.945
30.4229
30.8907
31.3489
31.7984
32.2398
32.674
33.102
33.5245
33.9425
34.3565
34.7673
35.175
35.58
35.9829
36.3842
36.7843
37.1834
37.5812
37.977
38.3695
38.7573
39.1389
39.5132
39.88
40.2413
40.6014
40.968
41.3527
41.7696
42.2346
42.7614
43.359
44.0287
44.7638
45.5503
46.3658
47.1806
47.963
48.6838
49.3202
49.8478
50.2605
50.5196
50.5973
50.501
50.2416
49.8347
49.2979
48.6486
47.9032
47.0764
46.1812
45.2289
44.2289
43.1892
42.1167
41.0174
39.8969
38.7615
37.6196
36.4856
35.3817
34.3338
33.3545
32.4102
31.4443
30.4325
29.3832
28.3035
27.1952
26.054
24.8971
23.8063
22.8387
21.9521
21.083
20.2095
19.3389
18.4895
17.6753
16.9064
16.188
15.5217
14.9078
14.3452
13.8316
13.365
12.9412
12.5569
12.2082
11.8925
11.6055
11.3461
11.113
10.9039
10.7167
10.549
10.3979
10.2605
10.1337
10.0141
9.898
9.78192
9.66373
9.53798
9.39437
9.22835
9.04111
8.82806
8.57943
8.29001
7.96006
7.59356
7.19685
6.7783
6.34925
5.93123
5.54295
18.3876
119.846
192.865
207.825
198.721
182.283
164.32
146.917
130.819
116.248
103.204
91.602
81.3213
72.2368
64.2277
57.1826
51.0006
45.5912
40.8728
36.7721
33.2225
30.1638
27.541
25.3044
23.4093
21.8153
20.4869
19.3925
18.5049
17.8006
17.2594
16.8638
16.5984
16.4497
16.4053
16.454
16.5849
16.7884
17.055
17.3761
17.7438
18.1505
18.5893
19.054
19.5387
20.038
20.5472
21.062
21.5786
22.0938
22.605
23.1098
23.6063
24.0931
24.5691
25.0333
25.4853
25.9247
26.3513
26.7649
27.1658
27.5539
27.9295
28.2929
28.6445
28.9848
29.3143
29.6335
29.9431
30.2436
30.5354
30.8191
31.0951
31.3635
31.6249
31.8791
32.1264
32.3663
32.5988
32.8232
33.0388
33.2446
33.4392
33.6217
33.7911
33.9476
34.0925
34.229
34.3625
34.501
34.6544
34.8335
35.0484
35.3065
35.611
35.9609
36.3503
36.7685
37.2
37.6268
38.0303
38.3936
38.7004
38.9385
39.0956
39.1689
39.1413
39.0048
38.7668
38.4354
38.0195
37.5287
36.9723
36.3589
35.6964
34.9916
34.2507
33.4789
32.6808
31.8609
31.0237
30.1753
29.3245
28.4837
27.6659
26.8762
26.1001
25.3123
24.4991
23.6618
22.8038
21.928
21.0372
20.1455
19.2944
18.5159
17.7952
17.1008
16.4153
15.7372
15.0751
14.4371
13.8318
13.2631
12.7325
12.2405
11.7866
11.3693
10.9873
10.6397
10.3234
10.0348
9.77242
9.53211
9.31307
9.11468
8.93574
8.77475
8.62998
8.49937
8.38081
8.27209
8.17075
8.07458
7.9821
7.88868
7.78704
7.6692
7.53348
7.382
7.21041
7.0125
6.78426
6.52517
6.23761
5.92626
5.59797
5.26248
4.93758
4.63136
20.223
141.648
230.696
247.064
235.041
214.761
192.98
172.046
152.771
135.37
119.823
106.014
93.7951
83.0139
73.5249
65.1936
57.898
51.5279
45.9835
41.1745
37.0189
33.4422
30.3765
27.7608
25.54
23.665
22.0926
20.7849
19.7091
18.837
18.1447
17.6116
17.2198
16.9539
16.8001
16.7462
16.7808
16.8935
17.0746
17.315
17.6064
17.9411
18.3117
18.7116
19.1348
19.5757
20.0292
20.491
20.957
21.4237
21.8882
22.3479
22.8005
23.2444
23.678
24.1003
24.5105
24.9078
25.2918
25.6623
26.0191
26.3622
26.6916
27.0075
27.3101
27.5996
27.8764
28.1409
28.3935
28.6345
28.8643
29.0831
29.2914
29.4893
29.6772
29.855
30.0227
30.1798
30.3259
30.4606
30.5831
30.6925
30.7879
30.8682
30.9327
30.9812
31.0144
31.0338
31.0428
31.0459
31.0491
31.0591
31.0826
31.1251
31.1904
31.2801
31.3932
31.5262
31.6726
31.8241
31.9708
32.1026
32.2095
32.2824
32.3133
32.2968
32.2276
32.1058
31.9256
31.6854
31.3883
31.0393
30.6434
30.2056
29.7303
29.2221
28.6846
28.1213
27.5352
26.9291
26.3052
25.6678
25.0217
24.3733
23.7277
23.0862
22.4421
21.7834
21.1028
20.4003
19.6788
18.943
18.1993
17.459
16.7434
16.0706
15.4374
14.8296
14.2358
13.6532
13.0852
12.5379
12.0172
11.5258
11.0653
10.6363
10.2385
9.87168
9.53518
9.22827
8.94923
8.69474
8.46291
8.25037
8.05571
7.87877
7.71875
7.57454
7.44486
7.32817
7.223
7.12765
7.04118
6.96196
6.88595
6.8077
6.72024
6.61929
6.50534
6.37799
6.23364
6.06773
5.87703
5.6607
5.42026
5.15934
4.88368
4.60151
4.32745
4.06358
21.7872
166.116
271.448
289.089
274.013
249.696
223.853
199.124
176.4
155.912
137.622
121.393
107.05
94.4135
83.3128
73.5881
65.0933
57.6956
51.2741
45.7188
40.9296
36.8155
33.2943
30.2916
27.7414
25.5847
23.7701
22.2525
20.9932
19.9592
19.1223
18.4588
17.9483
17.5734
17.3188
17.1713
17.1187
17.1502
17.2557
17.4258
17.6521
17.9265
18.2417
18.5907
18.9674
19.3659
19.781
20.208
20.6426
21.0811
21.5201
21.9568
22.3887
22.8138
23.2303
23.6368
24.032
24.4152
24.7855
25.1425
25.4858
25.8151
26.1303
26.4313
26.7182
26.9911
27.2503
27.4958
27.7279
27.947
28.1532
28.3469
28.5282
28.6975
28.8548
29.0004
29.134
29.2554
29.3642
29.4599
29.542
29.6096
29.6617
29.6975
29.7161
29.7168
29.6994
29.6644
29.6129
29.5469
29.4695
29.3841
29.2947
29.2052
29.1189
29.0386
28.9662
28.9021
28.8457
28.7945
28.7452
28.6935
28.6342
28.5625
28.4732
28.3623
28.2264
28.0631
27.8703
27.6479
27.3953
27.1123
26.8003
26.461
26.0968
25.7097
25.3018
24.8749
24.4305
23.9699
23.4948
23.0058
22.5045
21.993
21.4734
20.9449
20.403
19.8411
19.2549
18.6441
18.0129
17.3664
16.7106
16.0551
15.4126
14.7937
14.2005
13.6281
13.071
12.528
12.0007
11.494
11.0115
10.5553
10.1267
9.72618
9.35397
9.00981
8.69305
8.40299
8.13911
7.89897
7.68039
7.48108
7.29865
7.13274
6.98262
6.8474
6.72604
6.61764
6.52124
6.43551
6.35871
6.28809
6.21945
6.14759
6.0677
5.9782
5.87895
5.76808
5.64221
5.49752
5.33117
5.14209
4.93121
4.70143
4.45754
4.20647
3.96039
3.7182
23.0562
192.921
314.657
333.572
315.373
286.824
256.652
227.829
201.359
177.502
156.218
137.351
120.702
106.063
93.2339
82.0266
72.2672
63.7963
56.468
50.1492
44.7187
40.0665
36.0938
32.712
29.8423
27.4155
25.3711
23.6564
22.2264
21.0429
20.0737
19.2916
18.6739
18.2011
17.8567
17.6262
17.4968
17.4571
17.4968
17.6062
17.7768
18.0004
18.2694
18.5771
18.9169
19.283
19.6698
20.0725
20.4866
20.9081
21.3334
21.7595
22.1835
22.6032
23.0165
23.4216
23.8173
24.2021
24.5753
24.9358
25.2832
25.617
25.9367
26.2423
26.5335
26.8103
27.0729
27.3212
27.5554
27.7757
27.9823
28.1754
28.3553
28.5221
28.676
28.8171
28.9453
29.0606
29.1626
29.251
29.3251
29.3841
29.4271
29.453
29.4607
29.4491
29.4171
29.364
29.2894
29.1935
29.0769
28.9409
28.7873
28.6187
28.4378
28.2479
28.052
27.8534
27.6545
27.4571
27.262
27.0691
26.8774
26.6852
26.4901
26.29
26.0826
25.8659
25.6383
25.3986
25.1459
24.8796
24.5996
24.3062
24
23.6815
23.3513
23.0097
22.6568
22.2924
21.9165
21.5283
21.1273
20.7129
20.2843
19.839
19.3733
18.8822
18.3634
17.8174
17.2466
16.656
16.0515
15.44
14.8307
14.232
13.6484
13.0809
12.5285
11.9925
11.4747
10.9791
10.5082
10.0635
9.64569
9.25525
8.892
8.55546
8.24491
7.9595
7.69899
7.46221
7.24667
7.05086
6.87183
6.70899
6.56174
6.42926
6.31071
6.20519
6.11159
6.02837
5.9533
5.8834
5.81496
5.74386
5.66774
5.58568
5.49607
5.39637
5.28322
5.15309
5.00327
4.83248
4.64116
4.43157
4.20767
3.97531
3.74476
3.51339
24.0125
221.904
359.925
380.143
358.726
325.694
290.862
257.593
227.042
199.516
174.984
153.273
134.156
117.395
102.754
90.0123
78.9613
69.4098
61.182
54.1174
48.0702
42.9086
38.5152
34.7854
31.6271
28.96
26.714
24.8289
23.253
21.9431
20.8632
19.9829
19.2772
18.7248
18.3078
18.0106
17.8197
17.7233
17.7107
17.7721
17.8988
18.0825
18.3157
18.5916
18.9036
19.2458
19.6127
19.9991
20.4006
20.813
21.2325
21.656
22.0804
22.5032
22.922
23.335
23.7404
24.1367
24.5227
24.8973
25.2597
25.6091
25.945
26.2671
26.5751
26.8687
27.1481
27.413
27.6636
27.9001
28.1225
28.3311
28.5261
28.7076
28.8758
29.0306
29.1723
29.3008
29.4159
29.5173
29.6042
29.6758
29.731
29.7685
29.7867
29.784
29.7587
29.7091
29.6335
29.5305
29.3993
29.2394
29.0513
28.8363
28.5968
28.336
28.0578
27.7669
27.468
27.1654
26.8627
26.5629
26.2678
25.9781
25.694
25.4147
25.1391
24.8662
24.5944
24.3227
24.0499
23.7752
23.498
23.2178
22.9343
22.6475
22.3569
22.062
21.7623
21.4565
21.1435
20.8214
20.4882
20.1416
19.7784
19.3952
18.9869
18.5489
18.0786
17.5764
17.0448
16.4876
15.9097
15.3177
14.7186
14.1201
13.5283
12.9479
12.3817
11.8328
11.3046
10.8007
10.3233
9.8738
9.45278
9.06027
8.69565
8.35802
8.04626
7.75923
7.49636
7.25715
7.03918
6.84122
6.66035
6.4955
6.34612
6.21141
6.09045
5.98219
5.88535
5.79829
5.71885
5.64434
5.57178
5.49904
5.42454
5.3465
5.26267
5.17015
5.06556
4.9455
4.80722
4.64922
4.47148
4.27566
4.06496
3.84429
3.62249
3.39625
24.6492
252.939
406.853
428.319
403.463
365.57
325.642
287.505
252.498
220.996
192.976
168.246
146.548
127.602
111.129
96.8631
84.5553
73.975
64.9104
57.1684
50.5746
44.973
40.2253
36.21
32.8211
29.9668
27.568
25.5566
23.8755
22.477
21.3216
20.3764
19.614
19.0113
18.5491
18.2109
17.9824
17.8514
17.8068
17.8389
17.9386
18.0978
18.3092
18.5659
18.8615
19.1902
19.5466
19.9257
20.323
20.7344
21.1561
21.5847
22.017
22.4503
22.882
23.31
23.7325
24.1475
24.5537
24.9496
25.3344
25.7072
26.0672
26.4141
26.7474
27.0668
27.3722
27.6634
27.9404
28.2034
28.4525
28.6878
28.9095
29.1179
29.3128
29.4945
29.6629
29.8184
29.9605
30.089
30.203
30.3015
30.3829
30.4457
30.4878
30.5072
30.5014
30.4678
30.4038
30.307
30.1753
30.0072
29.8023
29.5613
29.286
28.9797
28.6472
28.2938
27.9256
27.5487
27.1686
26.7901
26.417
26.0518
25.6962
25.3509
25.0157
24.6902
24.3733
24.0643
23.762
23.4656
23.1743
22.8875
22.6047
22.3253
22.0488
21.7744
21.5009
21.2269
20.9503
20.6688
20.3792
20.078
19.7604
19.421
19.0534
18.6523
18.2157
17.7434
17.2366
16.6982
16.1328
15.5459
14.9442
14.335
13.7255
13.1225
12.5315
11.9571
11.4045
10.8773
10.3786
9.91005
9.47258
9.06597
8.68949
8.3418
8.02139
7.72683
7.45683
7.21065
6.98636
6.78217
6.59556
6.42486
6.26937
6.12821
6.00039
5.8848
5.78009
5.68478
5.597
5.51482
5.43655
5.36043
5.28469
5.20722
5.12549
5.03649
4.93681
4.82311
4.69257
4.54341
4.3752
4.18897
3.98726
3.77411
3.55726
3.33322
24.9222
285.949
454.944
477.381
448.613
405.273
359.671
316.162
276.295
240.52
208.819
180.969
156.663
135.562
117.332
101.649
88.2098
76.7362
66.9731
58.6894
51.6786
45.7589
40.7706
36.575
33.0528
30.1012
27.6322
25.5705
23.8537
22.4301
21.2572
20.2997
19.5282
18.9183
18.4495
18.1047
17.8694
17.7312
17.679
17.7033
17.7955
17.9479
18.1535
18.406
18.6991
19.0275
19.3857
19.7692
20.1734
20.5942
21.0278
21.4708
21.9198
22.3718
22.8243
23.2748
23.7212
24.1616
24.5944
25.0182
25.432
25.8348
26.2259
26.6046
26.9705
27.3233
27.6626
27.9882
28.3002
28.5985
28.8833
29.1546
29.4128
29.6579
29.8901
30.1093
30.3155
30.5089
30.689
30.8551
31.0063
31.1408
31.2569
31.3523
31.4247
31.4713
31.4892
31.4752
31.4261
31.3389
31.2111
31.0409
30.8278
30.5723
30.2765
29.9441
29.5799
29.1902
28.7818
28.3614
27.9355
27.5098
27.0889
26.6764
26.2746
25.8851
25.5084
25.1443
24.7924
24.452
24.1223
23.8027
23.4925
23.1912
22.8984
22.6136
22.3363
22.0656
21.8005
21.5393
21.28
21.0197
20.7548
20.4807
20.1912
19.879
19.5366
19.1594
18.744
18.2893
17.7954
17.2639
16.698
16.1047
15.49
14.8613
14.2264
13.5933
12.9692
12.3602
11.7725
11.2107
10.6784
10.1783
9.71151
9.27824
8.87779
8.50892
8.16998
7.85906
7.57422
7.3142
7.07745
6.86134
6.66383
6.48234
6.31585
6.16339
6.02395
5.89637
5.77939
5.67183
5.57242
5.47981
5.39256
5.30911
5.22768
5.14613
5.06186
4.97181
4.8726
4.7609
4.6338
4.48931
4.32659
4.1462
3.95001
3.74136
3.52701
3.30351
24.7967
320.382
503.105
526.01
492.495
442.841
390.815
341.351
296.221
255.936
220.462
189.518
162.722
139.655
119.901
103.061
88.7656
76.6747
66.4814
57.9107
50.7201
44.6992
39.6673
35.4688
31.9708
29.0611
26.6445
24.6415
22.986
21.6236
20.5098
19.6077
18.8872
18.3235
17.8962
17.5882
17.3854
17.2757
17.2487
17.2954
17.4078
17.5786
17.8013
18.07
18.3792
18.7235
19.0983
19.499
19.9214
20.3617
20.8161
21.2814
21.7544
22.2322
22.7122
23.192
23.6694
24.1425
24.6094
25.0688
25.5195
25.9604
26.3907
26.8098
27.2171
27.6121
27.9945
28.3642
28.7209
29.0648
29.3958
29.7142
30.0201
30.3136
30.5947
30.8636
31.12
31.3635
31.5933
31.8081
32.0059
32.1846
32.3419
32.475
32.5807
32.6559
32.6972
32.7012
32.6647
32.5849
32.4598
32.2883
32.0705
31.8078
31.5031
31.1606
30.7857
30.3848
29.9645
29.5313
29.0916
28.651
28.214
27.7842
27.3641
26.9553
26.5584
26.1737
25.8009
25.4397
25.0896
24.7503
24.4214
24.1028
23.7944
23.4961
23.2077
22.9287
22.658
22.3946
22.1366
21.8813
21.6246
21.3615
21.0841
20.7842
20.4536
20.0852
19.6747
19.22
18.7212
18.18
17.5991
16.9847
16.3441
15.6847
15.0147
14.3426
13.677
13.024
12.3914
11.7844
11.2079
10.6653
10.1585
9.68788
9.25297
8.85258
8.48498
8.14797
7.83918
7.55695
7.30033
7.06549
6.85086
6.6524
6.46878
6.29911
6.14241
5.99769
5.86394
5.7401
5.62512
5.51795
5.41739
5.32207
5.23032
5.14006
5.04874
4.95331
4.85046
4.73686
4.60954
4.46635
4.30613
4.129
3.93625
3.73054
3.51776
3.29431
24.3678
361.774
556.074
576.035
535.332
477.472
417.581
361.143
310.119
265.028
225.76
191.914
162.975
138.391
117.621
100.156
85.5292
73.322
63.1632
54.7281
47.7367
41.9501
37.1662
33.2146
29.9531
27.2633
25.0477
23.2259
21.7326
20.5148
19.5291
18.7408
18.1214
17.6476
17.3007
17.0648
16.9269
16.876
16.9026
16.9983
17.1558
17.3686
17.6307
17.9366
18.2814
18.6603
19.069
19.5033
19.9594
20.4335
20.9222
21.4222
21.9305
22.4441
22.9603
23.4767
23.9913
24.502
25.0072
25.5057
25.9962
26.4778
26.9498
27.4114
27.8622
28.3016
28.7293
29.145
29.5488
29.9405
30.3204
30.6886
31.0454
31.391
31.7252
32.0482
32.3597
32.6589
32.9445
33.2141
33.4651
33.6948
33.8998
34.0769
34.2223
34.3324
34.4031
34.4307
34.4118
34.3441
34.226
34.0571
33.8385
33.5729
33.2639
32.9165
32.5366
32.1305
31.7043
31.2643
30.8162
30.3652
29.9156
29.4708
29.033
28.6037
28.1839
27.7738
27.3737
26.9834
26.6029
26.2322
25.8715
25.521
25.1812
24.8525
24.5354
24.2297
23.9353
23.6513
23.377
23.11
22.845
22.5748
22.2908
21.9824
21.6408
21.2589
20.8324
20.3608
19.8436
19.2818
18.6781
18.0355
17.3625
16.6668
15.9568
15.2416
14.5307
13.83
13.1483
12.4916
11.8661
11.276
10.7238
10.2103
9.7353
9.2977
8.89568
8.52689
8.18866
7.87885
7.59709
7.33882
7.10233
6.88261
6.67777
6.48722
6.31004
6.14533
5.99217
5.8496
5.71675
5.5927
5.47646
5.36683
5.26226
5.16078
5.05995
4.95682
4.84816
4.73068
4.60142
4.45802
4.29909
4.12427
3.93434
3.73128
3.52024
3.29708
23.742
404.399
606.073
619.762
570.031
503.045
434.976
371.695
315.234
266.024
223.793
187.953
157.794
132.586
111.63
94.2846
79.9786
68.2108
58.5498
50.629
44.1399
38.8258
34.4743
30.9105
27.9916
25.601
23.6445
22.0459
20.7438
19.6894
18.8433
18.1741
17.6563
17.2697
16.9975
16.8262
16.7444
16.7424
16.8121
16.9462
17.1383
17.3825
17.6737
18.0069
18.3776
18.7816
19.2149
19.6737
20.1542
20.653
21.1667
21.6923
22.2267
22.7671
23.3109
23.8558
24.3999
24.9414
25.4783
26.0094
26.5333
27.0489
27.5554
28.0521
28.5381
29.0131
29.4766
29.9282
30.368
30.7959
31.2123
31.6176
32.0123
32.3968
32.7713
33.1358
33.4903
33.834
34.1653
34.4816
34.7796
35.056
35.3068
35.5281
35.7154
35.8637
35.9684
36.0251
36.0302
35.9813
35.8768
35.7164
35.5015
35.2349
34.9208
34.5648
34.1736
33.754
33.3129
32.8563
32.3892
31.9166
31.4427
30.9706
30.5028
30.0409
29.5863
29.1395
28.7012
28.2715
27.8509
27.4398
27.0387
26.6483
26.2696
25.9036
25.5514