/*--------------------------------*- C++ -*----------------------------------*\
  =========                 |
  \\      /  F ield         | OpenFOAM: The Open Source CFD Toolbox
   \\    /   O peration     | Website:  https://openfoam.org
    \\  /    A nd           | Version:  9
     \\/     M anipulation  |
\*---------------------------------------------------------------------------*/
FoamFile
{
    format      ascii;
    class       volScalarField;
    location    "0.2";
    object      k;
}
// * * * * * * * * * * * * * * * * * * * * * * * * * * * * * * * * * * * * * //

dimensions      [0 2 -2 0 0 0 0];

internalField   nonuniform List<scalar> 
12225
(
0.33896
0.31429
0.293862
0.274797
0.257428
0.243235
0.232484
0.224979
0.220498
0.218918
0.220311
0.225062
0.234094
0.249404
0.275554
0.324851
0.443177
0.917896
0.392138
0.437892
0.521636
0.573175
0.598993
0.610226
0.613067
0.611676
0.609175
0.608126
0.61092
0.620228
0.639779
0.67599
0.742147
0.871367
1.17967
2.05568
0.444393
0.595029
0.837658
1.01621
1.12373
1.17849
1.19843
1.1993
1.19269
1.18664
1.18697
1.19871
1.22779
1.28376
1.38566
1.57702
1.96522
2.81224
0.451325
0.542949
0.695026
0.829515
0.926077
0.986243
1.01818
1.03224
1.03756
1.0413
1.0492
1.06657
1.09973
1.15839
1.25974
1.43615
1.73932
2.23603
0.464169
0.513421
0.565093
0.624442
0.675987
0.713974
0.738592
0.753576
0.763551
0.772985
0.786094
0.807304
0.842123
0.898523
0.988798
1.13212
1.34265
1.61166
0.476948
0.518511
0.516201
0.524354
0.536903
0.549656
0.560055
0.568303
0.576048
0.585588
0.599616
0.621346
0.654907
0.705916
0.781958
0.892908
1.03493
1.18032
0.481947
0.53026
0.508966
0.492265
0.480392
0.474379
0.472084
0.472511
0.475805
0.482909
0.495337
0.515149
0.545039
0.588447
0.649451
0.732352
0.825379
0.906256
0.479455
0.534738
0.513173
0.489906
0.466673
0.449945
0.43934
0.433954
0.433393
0.437852
0.448014
0.464977
0.490199
0.525407
0.57235
0.632095
0.690266
0.73505
0.474606
0.532856
0.518546
0.498492
0.47287
0.452127
0.437812
0.429622
0.427089
0.429987
0.438386
0.452593
0.47307
0.500286
0.534504
0.574864
0.607053
0.627994
0.472522
0.535027
0.530578
0.516052
0.491329
0.469846
0.454706
0.446006
0.443098
0.445303
0.452117
0.463198
0.478291
0.497084
0.519057
0.542288
0.553794
0.555525
0.495351
0.554626
0.547588
0.532177
0.506388
0.484654
0.469757
0.46106
0.457184
0.456867
0.459191
0.463565
0.469632
0.477147
0.485855
0.494096
0.492524
0.486782
0.518731
0.564795
0.549848
0.535853
0.515125
0.498448
0.486221
0.476706
0.468267
0.459868
0.451087
0.44203
0.433238
0.425608
0.420361
0.417815
0.414836
0.425209
0.530776
0.559507
0.549446
0.552789
0.550567
0.546134
0.538789
0.52761
0.51242
0.493712
0.472484
0.450128
0.428376
0.409258
0.395105
0.387133
0.389768
0.409597
0.526455
0.529662
0.525462
0.53913
0.551152
0.556068
0.552591
0.541059
0.522911
0.500085
0.474726
0.449054
0.425309
0.405722
0.392586
0.385999
0.393992
0.41482
0.501837
0.492345
0.483857
0.479231
0.476915
0.474524
0.46935
0.460341
0.447849
0.433027
0.417408
0.402645
0.390341
0.382009
0.37925
0.380008
0.393097
0.410342
0.46978
0.468588
0.469572
0.453954
0.439877
0.428095
0.417693
0.407838
0.398312
0.389401
0.381693
0.375899
0.372712
0.372819
0.377186
0.381713
0.396802
0.408271
0.433123
0.447172
0.465978
0.450686
0.434875
0.42047
0.408137
0.397856
0.389563
0.383295
0.379174
0.377347
0.377925
0.381094
0.387461
0.39138
0.405293
0.410033
0.399431
0.423766
0.456552
0.443994
0.429932
0.416852
0.405903
0.397363
0.391187
0.387245
0.385392
0.385469
0.387298
0.390859
0.396643
0.398183
0.409303
0.407949
0.377881
0.401099
0.436799
0.426655
0.416048
0.406824
0.399694
0.394641
0.391402
0.389676
0.389187
0.389692
0.390984
0.393066
0.39647
0.394847
0.401427
0.395139
0.375103
0.382781
0.401556
0.393822
0.387958
0.383933
0.381421
0.379797
0.378563
0.377423
0.376244
0.374992
0.373694
0.372545
0.372147
0.367894
0.368779
0.361442
0.378239
0.376159
0.382225
0.375421
0.370664
0.367188
0.364308
0.361386
0.358166
0.354611
0.350806
0.346895
0.343046
0.339523
0.336886
0.331953
0.330652
0.32441
0.381626
0.375835
0.374791
0.369646
0.365189
0.360828
0.356114
0.350728
0.344694
0.338227
0.331606
0.32512
0.319022
0.313578
0.309278
0.30407
0.301416
0.296047
0.38502
0.380115
0.375238
0.371319
0.365918
0.359425
0.351986
0.343738
0.334984
0.326079
0.317369
0.309167
0.301723
0.295272
0.290182
0.285282
0.281905
0.27733
0.389545
0.389247
0.381857
0.376097
0.367344
0.357424
0.346961
0.336313
0.325805
0.315728
0.306327
0.297809
0.290357
0.284144
0.279443
0.275792
0.272767
0.269369
0.395578
0.399993
0.389121
0.378587
0.366109
0.353907
0.342324
0.331466
0.321425
0.312299
0.304188
0.297198
0.291443
0.28707
0.2843
0.283271
0.282245
0.280946
0.399838
0.404682
0.392888
0.381433
0.370966
0.362039
0.35411
0.346945
0.340503
0.334844
0.330078
0.326344
0.323813
0.322705
0.323346
0.32644
0.329489
0.33169
0.397097
0.400923
0.404452
0.40759
0.411445
0.414584
0.416292
0.41677
0.416484
0.415925
0.415545
0.415751
0.41694
0.419535
0.424143
0.432217
0.441479
0.448761
0.38826
0.400153
0.441059
0.472228
0.495978
0.51277
0.523689
0.530479
0.53471
0.53762
0.540165
0.543101
0.547073
0.552707
0.560817
0.573603
0.591129
0.605655
0.370364
0.363593
0.380764
0.388573
0.391758
0.392388
0.391424
0.389713
0.38795
0.386699
0.386414
0.387483
0.390272
0.395171
0.402712
0.414376
0.432803
0.452729
0.349207
0.320733
0.296358
0.27431
0.254442
0.236938
0.22172
0.208596
0.197374
0.187875
0.179942
0.173454
0.168327
0.164533
0.162114
0.161232
0.163101
0.171981
0.0207444
0.058902
0.0823119
0.0965591
0.105524
0.111336
0.115223
0.117917
0.119861
0.121331
0.122521
0.123569
0.124564
0.125579
0.126656
0.127832
0.129171
0.130751
0.132599
0.134735
0.137195
0.139977
0.143033
0.146272
0.149578
0.152848
0.156047
0.159237
0.162533
0.165937
0.169331
0.172633
0.176001
0.180366
0.185827
0.197895
0.20134
0.214714
0.224641
0.234327
0.244419
0.25471
0.265476
0.276815
0.288772
0.30135
0.31452
0.328236
0.342443
0.357076
0.372071
0.387363
0.402892
0.4186
0.434437
0.450357
0.466322
0.4823
0.49827
0.514212
0.530117
0.545976
0.56177
0.57746
0.592988
0.608315
0.623422
0.638306
0.652974
0.667444
0.681741
0.695901
0.709966
0.723988
0.738022
0.752126
0.766355
0.780758
0.795389
0.810328
0.825684
0.841537
0.857932
0.874878
0.892402
0.91064
0.929689
0.949521
0.969891
0.989667
1.00584
1.01492
1.01713
1.01515
1.01177
1.00751
1.00226
0.996065
0.989009
0.981209
0.972859
0.964174
0.955309
0.946368
0.937407
0.928441
0.919458
0.910441
0.901389
0.892299
0.883157
0.873939
0.864617
0.85515
0.845476
0.83551
0.825142
0.814238
0.802646
0.790193
0.776677
0.761876
0.745563
0.72768
0.708745
0.68813
0.67809
0.66544
0.650283
0.634006
0.619275
0.591587
0.578151
0.552566
0.519144
0.497326
0.491957
0.472697
0.454396
0.43706
0.420719
0.405388
0.391014
0.377575
0.365077
0.353532
0.342945
0.33331
0.324612
0.316824
0.309914
0.303836
0.298542
0.293974
0.29007
0.286755
0.283945
0.281549
0.279464
0.277579
0.275778
0.273938
0.271932
0.269625
0.266879
0.263564
0.259564
0.254793
0.249194
0.242892
0.236045
0.228573
0.22038
0.211406
0.201635
0.191105
0.179885
0.16805
0.155608
0.142646
0.051008
0.12273
0.1695
0.19203
0.201835
0.205673
0.207025
0.207596
0.208144
0.20904
0.21061
0.212787
0.215479
0.2186
0.221978
0.225816
0.229958
0.234594
0.240306
0.247164
0.255059
0.263763
0.272996
0.28245
0.291841
0.301002
0.310045
0.319398
0.329486
0.340398
0.351829
0.363829
0.377893
0.393997
0.413224
0.435988
0.455214
0.485165
0.513325
0.545553
0.584022
0.625691
0.66997
0.71591
0.762954
0.810737
0.859007
0.907575
0.956288
1.00501
1.05363
1.10204
1.15014
1.19784
1.24507
1.29177
1.33788
1.38336
1.42819
1.47233
1.51578
1.55848
1.60038
1.6414
1.68145
1.72052
1.75859
1.79571
1.83191
1.86726
1.90183
1.93572
1.96906
2.00196
2.03456
2.067
2.09947
2.13218
2.16537
2.19921
2.23389
2.26957
2.30627
2.34405
2.38249
2.42144
2.46085
2.50089
2.54133
2.58029
2.61638
2.64609
2.66362
2.66837
2.65884
2.63608
2.60378
2.5648
2.52159
2.47653
2.43198
2.38984
2.35116
2.31646
2.28574
2.2586
2.23444
2.21261
2.19249
2.17354
2.15534
2.13752
2.11972
2.10158
2.08261
2.06224
2.03977
2.01438
1.98511
1.95084
1.91002
1.86079
1.80024
1.72549
1.64366
1.54192
1.48024
1.41197
1.33863
1.26931
1.21675
1.16027
1.11408
1.07596
0.993499
0.959821
0.93749
0.911525
0.883643
0.854965
0.827045
0.800564
0.775952
0.753361
0.732807
0.714244
0.697601
0.682743
0.669631
0.658103
0.647999
0.639141
0.631347
0.624435
0.618214
0.612484
0.607029
0.601629
0.596058
0.590093
0.583508
0.57608
0.567605
0.557913
0.546894
0.534526
0.52088
0.506325
0.491226
0.477738
0.465289
0.451026
0.434424
0.415159
0.393221
0.368771
0.342001
0.312908
0.280899
0.249223
0.0881226
0.162065
0.206942
0.226546
0.230763
0.228873
0.225449
0.222292
0.219991
0.218869
0.218901
0.219971
0.222058
0.225058
0.228772
0.233235
0.238581
0.244792
0.251792
0.259476
0.267693
0.276326
0.28526
0.294384
0.303642
0.313126
0.323092
0.333903
0.345861
0.359073
0.373569
0.389747
0.407951
0.428468
0.449248
0.473648
0.495976
0.524218
0.550234
0.581984
0.617484
0.657842
0.702009
0.749306
0.799073
0.850751
0.903857
0.957994
1.01283
1.06811
1.1236
1.17915
1.23461
1.28986
1.34482
1.39941
1.45357
1.50724
1.56037
1.6129
1.66475
1.71585
1.76612
1.81551
1.86403
1.91177
1.95883
2.0053
2.0513
2.09693
2.14231
2.18756
2.23283
2.2782
2.32372
2.36948
2.41561
2.46218
2.50918
2.55645
2.60369
2.65033
2.69574
2.73931
2.77998
2.81674
2.8478
2.87146
2.88615
2.88984
2.88365
2.87231
2.85843
2.84113
2.8194
2.79226
2.75893
2.71984
2.67647
2.63055
2.58376
2.53757
2.49315
2.45151
2.41324
2.37876
2.34833
2.32202
2.29963
2.2808
2.26515
2.25222
2.24153
2.23254
2.22465
2.21719
2.20945
2.20063
2.18981
2.17591
2.15749
2.13265
2.09926
2.05213
2.00748
1.94455
1.91457
1.85594
1.79071
1.72192
1.66803
1.60823
1.55429
1.50969
1.40944
1.38077
1.34687
1.31366
1.2769
1.23979
1.20454
1.17186
1.14225
1.11569
1.092
1.07099
1.05248
1.03642
1.02288
1.01176
1.0028
0.995762
0.990441
0.986665
0.984261
0.983043
0.982817
0.98337
0.984479
0.985903
0.987369
0.988558
0.98911
0.988649
0.98681
0.983285
0.977687
0.969641
0.95887
0.940274
0.91016
0.870353
0.823327
0.771066
0.715135
0.656593
0.595852
0.532162
0.462661
0.384327
0.13204
0.200286
0.250947
0.270872
0.26814
0.258072
0.24732
0.237995
0.230739
0.225538
0.2222
0.220636
0.220593
0.221807
0.224127
0.227416
0.23155
0.236424
0.241925
0.247946
0.254406
0.261242
0.268415
0.275913
0.283789
0.29218
0.301298
0.311367
0.322541
0.334885
0.348482
0.363574
0.380447
0.399082
0.418897
0.43975
0.46194
0.485137
0.509868
0.536703
0.566325
0.598904
0.634155
0.671691
0.711109
0.75202
0.794064
0.836932
0.880362
0.924144
0.968113
1.01214
1.05613
1.1
1.14371
1.1872
1.23046
1.27345
1.31615
1.35854
1.40058
1.44224
1.4835
1.52434
1.5648
1.60495
1.64486
1.68466
1.72443
1.7643
1.8044
1.84485
1.88578
1.92722
1.9692
2.01176
2.05494
2.09877
2.14322
2.18823
2.23362
2.27911
2.3243
2.36861
2.41131
2.45138
2.48765
2.5188
2.5435
2.56034
2.56845
2.56939
2.56614
2.55982
2.55013
2.53659
2.51912
2.49662
2.46915
2.43781
2.4035
2.36682
2.32868
2.28993
2.25148
2.21418
2.17883
2.14607
2.11626
2.08948
2.06564
2.0445
2.02574
2.00898
1.99373
1.97951
1.96576
1.95194
1.93742
1.92154
1.90348
1.88227
1.85716
1.82736
1.80009
1.77641
1.74759
1.70983
1.664
1.61362
1.56534
1.51577
1.46318
1.40856
1.35737
1.3117
1.27159
1.23195
1.19295
1.15663
1.12364
1.09424
1.06823
1.04528
1.02505
1.00718
0.991409
0.977634
0.965714
0.955693
0.94746
0.940746
0.935376
0.931187
0.928051
0.925833
0.924402
0.923619
0.923333
0.923379
0.923566
0.923674
0.923456
0.92265
0.920997
0.918239
0.913865
0.907425
0.898455
0.883712
0.860855
0.830433
0.793381
0.751051
0.704636
0.654984
0.602441
0.546502
0.48565
0.420433
0.182424
0.241487
0.308466
0.329917
0.317666
0.297197
0.277887
0.262162
0.250261
0.241723
0.236084
0.232799
0.231345
0.231338
0.23249
0.234574
0.23742
0.240901
0.244918
0.249399
0.2543
0.259601
0.265308
0.271456
0.278114
0.285391
0.293427
0.302364
0.312313
0.323346
0.33554
0.349024
0.363943
0.380324
0.397988
0.41676
0.436626
0.45756
0.479648
0.5031
0.528174
0.554918
0.583201
0.612818
0.643543
0.67515
0.707422
0.740166
0.773214
0.806426
0.839689
0.872916
0.906041
0.939017
0.97181
1.0044
1.03677
1.06891
1.10082
1.13249
1.16392
1.19509
1.22601
1.25668
1.28715
1.31745
1.34767
1.37788
1.40815
1.43858
1.46927
1.50033
1.5318
1.56371
1.59605
1.62883
1.66215
1.69608
1.73062
1.76572
1.80128
1.83712
1.87297
1.90848
1.94322
1.97665
2.00818
2.03722
2.0632
2.08562
2.1041
2.11892
2.13098
2.14091
2.14874
2.15411
2.15649
2.1555
2.1505
2.14068
2.1258
2.10636
2.08296
2.05626
2.02704
1.99619
1.96463
1.93319
1.90252
1.87303
1.84493
1.81827
1.793
1.76895
1.74591
1.72361
1.70174
1.67996
1.65794
1.6353
1.61164
1.58656
1.5601
1.53303
1.50888
1.49091
1.47246
1.44764
1.41524
1.37924
1.34103
1.3021
1.25795
1.20963
1.16791
1.13196
1.10097
1.06877
1.03589
1.00435
0.975282
0.949139
0.925799
0.90509
0.886724
0.870423
0.855966
0.843151
0.831889
0.822048
0.813661
0.806505
0.800385
0.795182
0.790784
0.787084
0.783975
0.78135
0.779096
0.77709
0.775191
0.773245
0.771076
0.7685
0.765334
0.761306
0.755992
0.749195
0.740288
0.727917
0.711178
0.689683
0.663481
0.633217
0.599578
0.563107
0.52408
0.482381
0.437844
0.392829
0.239184
0.285533
0.380094
0.402474
0.37722
0.344131
0.315294
0.292905
0.276382
0.264702
0.256829
0.251835
0.249024
0.24788
0.248015
0.249146
0.251069
0.253637
0.256748
0.260338
0.264373
0.26885
0.273784
0.279217
0.285208
0.291834
0.299187
0.307366
0.316461
0.326553
0.33772
0.350046
0.363604
0.378421
0.394444
0.411583
0.429772
0.448962
0.469126
0.490281
0.512457
0.535622
0.559684
0.584512
0.60996
0.635884
0.662142
0.688607
0.715164
0.741719
0.76819
0.794516
0.82065
0.846555
0.872211
0.897601
0.922718
0.947561
0.972127
0.99642
1.02044
1.0442
1.06769
1.09095
1.11398
1.13684
1.15958
1.18223
1.20488
1.22757
1.25036
1.27334
1.29651
1.31989
1.34346
1.36727
1.39137
1.4158
1.44055
1.46558
1.49081
1.51613
1.54137
1.56628
1.59063
1.61413
1.63651
1.65758
1.67719
1.69535
1.71213
1.72783
1.74286
1.7575
1.77168
1.78509
1.79711
1.807
1.81395
1.81752
1.81716
1.81221
1.80263
1.78878
1.77118
1.75047
1.72742
1.70275
1.67714
1.6511
1.62503
1.59915
1.57359
1.5484
1.52355
1.49896
1.47448
1.44999
1.4253
1.40024
1.37461
1.34832
1.32162
1.29543
1.27177
1.25261
1.2349
1.2139
1.18815
1.15968
1.12931
1.09743
1.06192
1.02294
0.987677
0.959547
0.935671
0.910932
0.885054
0.859329
0.834961
0.812394
0.79189
0.773398
0.756781
0.741887
0.728555
0.716646
0.706009
0.696557
0.688187
0.680872
0.674372
0.668599
0.663471
0.658905
0.654818
0.651124
0.647733
0.644549
0.641462
0.638354
0.63509
0.631531
0.627527
0.622806
0.617202
0.610587
0.60224
0.591754
0.57889
0.563061
0.544054
0.522112
0.497602
0.470864
0.442154
0.411627
0.379822
0.349011
0.302563
0.332388
0.46423
0.485331
0.443947
0.396457
0.3573
0.327828
0.306552
0.291647
0.281493
0.274859
0.270838
0.268766
0.268165
0.268691
0.270101
0.272224
0.274942
0.278183
0.281903
0.286088
0.290746
0.295904
0.301603
0.3079
0.314863
0.322569
0.331099
0.340535
0.350953
0.362426
0.375005
0.388716
0.403544
0.419443
0.436353
0.454206
0.472938
0.492487
0.512794
0.533784
0.555363
0.577424
0.599853
0.62254
0.645377
0.668267
0.691123
0.713868
0.736441
0.758788
0.780872
0.802661
0.824136
0.845282
0.866092
0.886563
0.906697
0.926495
0.945962
0.965106
0.983936
1.00247
1.02072
1.03872
1.0565
1.07411
1.09157
1.10893
1.12623
1.14349
1.16075
1.17799
1.19522
1.21246
1.22973
1.24704
1.26438
1.28169
1.29892
1.31598
1.33273
1.34904
1.36475
1.37971
1.39382
1.40702
1.41937
1.43104
1.44226
1.45339
1.46473
1.47648
1.48862
1.50091
1.51296
1.52412
1.53365
1.5409
1.5454
1.54697
1.54523
1.53969
1.53056
1.51819
1.50304
1.48566
1.46656
1.4462
1.42496
1.40314
1.38094
1.35849
1.33586
1.31309
1.29014
1.26699
1.24356
1.21978
1.19558
1.171
1.14627
1.12212
1.09968
1.0799
1.06141
1.0415
1.01905
0.994811
0.969204
0.94223
0.913094
0.881961
0.852902
0.829112
0.808741
0.78845
0.767461
0.746329
0.725869
0.706519
0.688579
0.672121
0.657124
0.643522
0.631226
0.620147
0.610153
0.601158
0.593048
0.585811
0.579263
0.573298
0.56787
0.562925
0.558397
0.55422
0.550322
0.546623
0.543036
0.539462
0.535794
0.53192
0.527689
0.522974
0.517649
0.511419
0.503826
0.494822
0.484325
0.471847
0.457156
0.440316
0.421518
0.400999
0.379005
0.355834
0.332268
0.3099
0.373022
0.381396
0.558011
0.573717
0.514391
0.451953
0.402368
0.365912
0.339984
0.32191
0.309582
0.301447
0.296382
0.293584
0.292478
0.292657
0.293835
0.295808
0.298435
0.301621
0.305304
0.309449
0.314045
0.319101
0.324645
0.330719
0.337381
0.3447
0.352752
0.361619
0.37138
0.382103
0.39384
0.406621
0.420448
0.435295
0.451113
0.46784
0.485397
0.503704
0.522673
0.542212
0.562222
0.582602
0.603249
0.624065
0.644957
0.665839
0.686633
0.707271
0.727696
0.747858
0.767719
0.787248
0.806422
0.825224
0.843644
0.861677
0.879319
0.896571
0.913436
0.929921
0.946031
0.961779
0.97718
0.992251
1.00702
1.0215
1.03572
1.04971
1.0635
1.07708
1.09049
1.10372
1.11677
1.12965
1.14237
1.15489
1.16721
1.17929
1.19106
1.20246
1.2134
1.22377
1.23348
1.24244
1.25062
1.25802
1.26474
1.27095
1.2769
1.28289
1.28919
1.29598
1.30329
1.31103
1.31896
1.3267
1.33375
1.33958
1.34377
1.346
1.346
1.34372
1.33887
1.33134
1.32138
1.3093
1.29543
1.28012
1.26364
1.24626
1.22817
1.20952
1.19041
1.17091
1.15104
1.13082
1.11023
1.08926
1.0679
1.0462
1.02437
1.00287
0.98231
0.963111
0.944615
0.925464
0.904961
0.883286
0.86062
0.836952
0.812062
0.786261
0.761755
0.740537
0.721815
0.703741
0.685541
0.667315
0.649512
0.632465
0.616437
0.601553
0.587822
0.575232
0.563733
0.553255
0.543749
0.535112
0.527284
0.520171
0.513691
0.507696
0.502167
0.497068
0.492357
0.487979
0.483876
0.479981
0.47622
0.472514
0.468773
0.464899
0.460796
0.456404
0.451503
0.445675
0.438747
0.430816
0.421773
0.411282
0.399147
0.385358
0.370026
0.353328
0.335506
0.316908
0.29833
0.280713
0.450637
0.433151
0.656858
0.664281
0.586864
0.509966
0.450399
0.407285
0.376883
0.355794
0.341434
0.331932
0.325957
0.322563
0.321081
0.321039
0.3221
0.324026
0.326648
0.329845
0.333532
0.337655
0.342184
0.347115
0.352461
0.358259
0.364561
0.371433
0.378953
0.387201
0.396259
0.4062
0.417082
0.42894
0.44179
0.455619
0.470395
0.486062
0.502551
0.519778
0.537655
0.556085
0.57497
0.59421
0.613709
0.63337
0.653104
0.672828
0.692467
0.711953
0.731227
0.750239
0.768945
0.787313
0.805312
0.822923
0.840129
0.85692
0.873288
0.88923
0.904745
0.919834
0.934503
0.948757
0.962606
0.97606
0.989135
1.00185
1.01421
1.02623
1.03794
1.04933
1.06043
1.07122
1.08172
1.09191
1.1018
1.11135
1.12055
1.12935
1.13772
1.1456
1.15291
1.15959
1.16556
1.17079
1.17524
1.17893
1.18194
1.1844
1.18651
1.18848
1.19052
1.19279
1.19538
1.19827
1.20138
1.20452
1.20741
1.20975
1.21123
1.21159
1.21058
1.20807
1.20391
1.19813
1.19063
1.18147
1.17083
1.15892
1.14593
1.13203
1.11737
1.10207
1.08623
1.06991
1.05315
1.03597
1.01838
1.00039
0.981994
0.963259
0.944319
0.925436
0.906926
0.888949
0.871173
0.852938
0.833846
0.813902
0.793184
0.771739
0.749598
0.727119
0.70552
0.68592
0.668053
0.650989
0.634152
0.617447
0.601099
0.58533
0.57041
0.556444
0.543458
0.531451
0.520393
0.510231
0.500926
0.492453
0.484736
0.477672
0.471213
0.465197
0.459598
0.454402
0.449577
0.445082
0.440867
0.436876
0.433046
0.429314
0.425608
0.421865
0.418037
0.413945
0.409299
0.403786
0.397367
0.39016
0.382028
0.372741
0.362141
0.350193
0.336965
0.322605
0.307342
0.291523
0.275871
0.26086
0.535028
0.490323
0.758138
0.75639
0.661481
0.570905
0.501953
0.452549
0.417938
0.394021
0.377753
0.366962
0.360117
0.356138
0.354265
0.35396
0.354839
0.356631
0.359137
0.362214
0.365759
0.369702
0.373999
0.378634
0.383616
0.388976
0.394761
0.40104
0.407888
0.41539
0.423631
0.432687
0.442624
0.453488
0.465306
0.47808
0.491791
0.506396
0.521837
0.538041
0.554924
0.572395
0.590359
0.608718
0.627376
0.64624
0.665221
0.684233
0.703201
0.722054
0.740728
0.75917
0.777331
0.79517
0.812655
0.829758
0.846455
0.862732
0.878574
0.893973
0.908924
0.923422
0.937468
0.951064
0.964213
0.976921
0.989197
1.00105
1.01248
1.02352
1.03415
1.04439
1.05424
1.06371
1.0728
1.0815
1.08981
1.09769
1.10512
1.11209
1.11854
1.12443
1.12972
1.13433
1.13823
1.14137
1.14373
1.14531
1.14615
1.14635
1.146
1.14526
1.14428
1.14317
1.14205
1.14095
1.13988
1.13879
1.13759
1.13611
1.13421
1.13172
1.12849
1.12437
1.11928
1.11316
1.10598
1.0978
1.08862
1.0785
1.06753
1.05582
1.04347
1.03056
1.01715
1.00329
0.989017
0.974338
0.959266
0.943803
0.927954
0.911756
0.895287
0.878679
0.862068
0.845495
0.828775
0.811576
0.793675
0.775044
0.755744
0.735881
0.715609
0.695238
0.675432
0.656815
0.639367
0.622652
0.606306
0.590215
0.574466
0.559257
0.544783
0.531128
0.518335
0.506417
0.49536
0.485152
0.475771
0.467195
0.459376
0.452208
0.445632
0.439509
0.433782
0.428449
0.423484
0.418852
0.414512
0.410415
0.406514
0.402755
0.399109
0.395518
0.391825
0.387813
0.383209
0.377859
0.371807
0.365066
0.357512
0.34897
0.339313
0.328497
0.316568
0.303653
0.289962
0.275817
0.261845
0.248223
0.625849
0.55352
0.861519
0.849948
0.738869
0.635725
0.558117
0.502881
0.464319
0.43769
0.419527
0.407384
0.399548
0.394817
0.392344
0.391534
0.391964
0.393332
0.395419
0.398067
0.401159
0.404615
0.408385
0.412446
0.416804
0.421485
0.426538
0.432026
0.438027
0.444624
0.451905
0.459954
0.468841
0.478624
0.48934
0.501006
0.513613
0.527135
0.541526
0.556724
0.572653
0.589229
0.606364
0.623963
0.641931
0.660176
0.678608
0.697139
0.71569
0.734187
0.752562
0.770755
0.788713
0.806388
0.82374
0.840737
0.857348
0.873551
0.889326
0.904659
0.919538
0.933954
0.947903
0.961382
0.974389
0.986926
0.998995
1.0106
1.02175
1.03245
1.04269
1.0525
1.06186
1.07079
1.07927
1.08731
1.0949
1.10203
1.10866
1.11477
1.12034
1.12532
1.12967
1.13334
1.13629
1.13847
1.13985
1.14042
1.14018
1.13917
1.13743
1.13506
1.13213
1.12874
1.12498
1.12093
1.11665
1.11218
1.10752
1.10266
1.09756
1.09215
1.08636
1.08012
1.07338
1.06607
1.05817
1.04969
1.04061
1.03099
1.02083
1.01018
0.999083
0.987569
0.975677
0.963433
0.950855
0.937951
0.924721
0.911159
0.897267
0.883044
0.868516
0.853726
0.83872
0.823477
0.807872
0.791716
0.774875
0.75733
0.739164
0.720497
0.701482
0.682379
0.663578
0.645442
0.62805
0.611252
0.594856
0.578809
0.563147
0.548037
0.533604
0.51992
0.507027
0.494943
0.483676
0.473218
0.463548
0.454644
0.446494
0.43902
0.432149
0.425789
0.419839
0.414288
0.409111
0.404277
0.399751
0.395501
0.391496
0.387684
0.384001
0.380336
0.376522
0.372354
0.367648
0.362362
0.356513
0.350048
0.342849
0.334771
0.325703
0.315599
0.30449
0.292484
0.279768
0.266628
0.253599
0.240687
0.722871
0.622762
0.966583
0.945981
0.820647
0.70623
0.620694
0.55997
0.517554
0.48814
0.467892
0.454116
0.444935
0.439039
0.435511
0.43371
0.433186
0.43362
0.434784
0.436511
0.43868
0.441207
0.444039
0.447154
0.450553
0.454264
0.458331
0.462813
0.46778
0.473317
0.479511
0.486447
0.494206
0.50285
0.512426
0.522962
0.534461
0.546908
0.560268
0.574489
0.589506
0.605241
0.621611
0.638527
0.655896
0.673626
0.691624
0.709804
0.728082
0.74638
0.764626
0.782755
0.800708
0.818432
0.83588
0.853013
0.869795
0.886197
0.902191
0.917758
0.932879
0.947541
0.961734
0.97545
0.988684
1.00143
1.0137
1.02548
1.03677
1.04759
1.05792
1.06779
1.07718
1.0861
1.09455
1.10252
1.11001
1.11701
1.12349
1.12945
1.13484
1.13963
1.14379
1.14726
1.15
1.15197
1.1531
1.15338
1.15278
1.15128
1.14889
1.14564
1.14157
1.13675
1.13124
1.12514
1.11854
1.11153
1.10418
1.09658
1.08875
1.08074
1.07253
1.06414
1.05552
1.04667
1.03757
1.02819
1.01854
1.00861
0.998415
0.987957
0.977249
0.966306
0.95514
0.943759
0.932166
0.920357
0.908321
0.896043
0.883504
0.870687
0.857578
0.844166
0.83043
0.816316
0.801718
0.786495
0.770564
0.753917
0.736612
0.718776
0.700548
0.682111
0.663725
0.645647
0.628007
0.610818
0.594032
0.577661
0.56176
0.546456
0.531836
0.517956
0.504848
0.492528
0.480995
0.470239
0.460238
0.450965
0.44242
0.434569
0.427324
0.420629
0.414363
0.408502
0.403028
0.39791
0.393118
0.38862
0.384373
0.380315
0.376357
0.372378
0.368231
0.363755
0.358869
0.353557
0.347774
0.34144
0.334437
0.326636
0.317935
0.308286
0.297706
0.286285
0.274182
0.261647
0.249137
0.236558
0.825834
0.698749
1.0744
1.04654
0.909121
0.784642
0.691711
0.625617
0.579197
0.546667
0.523863
0.507875
0.496687
0.4889
0.48355
0.479973
0.477712
0.476452
0.47597
0.476099
0.476719
0.477745
0.479128
0.480844
0.482896
0.485309
0.48812
0.491376
0.495141
0.499491
0.504513
0.510294
0.516914
0.52444
0.532922
0.542393
0.552865
0.564327
0.576754
0.5901
0.604306
0.619302
0.63501
0.651344
0.668214
0.68553
0.703199
0.721133
0.739247
0.757461
0.7757
0.793893
0.811978
0.829895
0.847592
0.865024
0.882149
0.89893
0.915334
0.931333
0.946905
0.962031
0.976697
0.99089
1.0046
1.01783
1.03056
1.0428
1.05455
1.0658
1.07656
1.08684
1.09663
1.10593
1.11474
1.12306
1.13089
1.13822
1.14502
1.1513
1.157
1.16211
1.16657
1.17035
1.17337
1.1756
1.17698
1.17743
1.17692
1.17541
1.17285
1.16924
1.16459
1.15893
1.15232
1.14486
1.13665
1.1278
1.11846
1.10875
1.09876
1.0886
1.07832
1.06797
1.05757
1.04714
1.03666
1.02613
1.01554
1.00488
0.994147
0.983338
0.972449
0.96148
0.950431
0.939302
0.928088
0.916778
0.905356
0.8938
0.88208
0.870162
0.858007
0.845566
0.832777
0.819556
0.805777
0.791319
0.776102
0.760127
0.743441
0.726126
0.708312
0.69015
0.671828
0.653547
0.635473
0.617716
0.600334
0.583399
0.567003
0.55126
0.536243
0.522002
0.508565
0.49594
0.484112
0.473058
0.462744
0.453136
0.444224
0.435998
0.428373
0.421308
0.414683
0.408458
0.402615
0.397125
0.391954
0.387062
0.382399
0.377899
0.373474
0.369016
0.364409
0.359575
0.354466
0.349028
0.343193
0.336867
0.329933
0.322273
0.313787
0.304425
0.294191
0.283154
0.271446
0.259278
0.247044
0.234599
0.934395
0.783178
1.18732
1.15449
1.00685
0.873152
0.773032
0.701377
0.650489
0.614166
0.587963
0.568789
0.554518
0.543703
0.535369
0.528862
0.523755
0.519758
0.516665
0.514319
0.512604
0.511439
0.510774
0.510585
0.510872
0.511649
0.512944
0.51479
0.51724
0.520365
0.524245
0.528958
0.534574
0.541155
0.548744
0.55737
0.567042
0.577752
0.589474
0.602168
0.615777
0.630235
0.645468
0.661394
0.67793
0.694984
0.712469
0.730298
0.748386
0.766653
0.785021
0.803415
0.821768
0.840016
0.858101
0.875971
0.893578
0.91088
0.927837
0.944417
0.960594
0.976344
0.991649
1.0065
1.02087
1.03476
1.04817
1.06109
1.07351
1.08544
1.09688
1.10783
1.11829
1.12826
1.13774
1.14673
1.15522
1.16321
1.17068
1.17762
1.18399
1.18976
1.19488
1.19929
1.20293
1.20574
1.20765
1.20857
1.20844
1.20719
1.20477
1.20113
1.19627
1.19019
1.18296
1.17465
1.16538
1.1553
1.14457
1.13334
1.12176
1.10996
1.09806
1.08612
1.07421
1.06235
1.05057
1.03886
1.02723
1.01566
1.00415
0.992677
0.981251
0.969861
0.958506
0.947184
0.935889
0.92461
0.913332
0.902031
0.890674
0.879218
0.867605
0.855764
0.843599
0.830984
0.817769
0.803827
0.789107
0.773598
0.757321
0.740324
0.722713
0.704615
0.686185
0.6676
0.649036
0.630655
0.612585
0.594942
0.57786
0.561449
0.5458
0.530977
0.517012
0.503907
0.491645
0.48019
0.469497
0.459526
0.45024
0.441622
0.433611
0.426144
0.419122
0.412481
0.406197
0.400241
0.394575
0.389159
0.383939
0.378857
0.373839
0.36881
0.363706
0.358469
0.353042
0.347359
0.341344
0.334899
0.32791
0.320265
0.31187
0.302666
0.292644
0.281854
0.2704
0.258455
0.246361
0.233949
1.04809
0.879248
1.30851
1.27227
1.11534
0.972716
0.865259
0.787516
0.731286
0.690004
0.659001
0.635064
0.616033
0.600478
0.587472
0.57642
0.566957
0.558842
0.551906
0.546007
0.541038
0.536932
0.533641
0.531134
0.529402
0.528445
0.528255
0.528827
0.530183
0.532368
0.535438
0.539448
0.544443
0.550464
0.55754
0.565688
0.574912
0.585201
0.596532
0.608865
0.622151
0.636331
0.651337
0.667097
0.683529
0.700547
0.718066
0.736
0.754264
0.772777
0.791457
0.810229
0.829017
0.847755
0.866378
0.88483
0.903058
0.921012
0.938654
0.955947
0.972863
0.989376
1.00547
1.02112
1.03631
1.05104
1.0653
1.07908
1.09237
1.10518
1.1175
1.12934
1.1407
1.15158
1.16198
1.17189
1.18132
1.19024
1.19865
1.20651
1.21381
1.22047
1.22645
1.23168
1.2361
1.23962
1.24216
1.24364
1.24396
1.24306
1.24087
1.23734
1.23245
1.22622
1.21869
1.20997
1.20017
1.18945
1.17797
1.16592
1.15345
1.14072
1.12785
1.11493
1.10205
1.08924
1.07653
1.06394
1.05147
1.0391
1.02684
1.01469
1.00262
0.990659
0.978792
0.967027
0.955362
0.943795
0.932314
0.920901
0.909528
0.898151
0.886708
0.875106
0.863222
0.85089
0.837949
0.824293
0.809855
0.794603
0.778536
0.761672
0.744066
0.72587
0.707215
0.688262
0.669186
0.650174
0.631391
0.61298
0.595102
0.577883
0.561429
0.545825
0.531112
0.517302
0.504381
0.492317
0.481064
0.470567
0.460768
0.451636
0.443126
0.435146
0.427622
0.420454
0.413606
0.40705
0.400749
0.394662
0.388744
0.382949
0.37723
0.371538
0.365824
0.360039
0.354127
0.348025
0.341655
0.33492
0.327713
0.319926
0.311467
0.302274
0.292327
0.281654
0.270335
0.258509
0.24647
0.23404
1.16638
0.989438
1.43478
1.39528
1.22937
1.07811
0.963224
0.878732
0.815932
0.767987
0.730138
0.699211
0.673144
0.650651
0.630964
0.613617
0.598351
0.585006
0.573424
0.563447
0.554937
0.547792
0.541943
0.537325
0.533873
0.531539
0.530275
0.530043
0.530829
0.532634
0.535471
0.539355
0.544305
0.550336
0.557462
0.565686
0.575003
0.5854
0.596849
0.609313
0.622745
0.637089
0.65228
0.668247
0.684916
0.702205
0.720032
0.738314
0.756969
0.775915
0.795075
0.814373
0.833735
0.853093
0.872383
0.891546
0.910527
0.929276
0.947748
0.965907
0.983719
1.00116
1.0182
1.03483
1.05103
1.06678
1.08208
1.09692
1.1113
1.12521
1.13865
1.15163
1.16414
1.1762
1.18778
1.1989
1.20954
1.21968
1.2293
1.23835
1.24679
1.25454
1.26154
1.26772
1.27298
1.27724
1.28042
1.28242
1.28316
1.28256
1.28057
1.27716
1.27234
1.26613
1.25859
1.24984
1.24001
1.22924
1.2177
1.20555
1.19296
1.18006
1.16697
1.15379
1.14059
1.12741
1.11428
1.10122
1.08823
1.07531
1.06247
1.04971
1.03702
1.02442
1.01193
0.999543
0.987285
0.975157
0.963162
0.951296
0.939547
0.927876
0.916221
0.904488
0.892518
0.880141
0.867182
0.853499
0.839003
0.823648
0.807439
0.790393
0.772546
0.75402
0.734959
0.715512
0.695848
0.676155
0.656618
0.637374
0.618609
0.600461
0.583066
0.566525
0.550896
0.536199
0.522427
0.509551
0.497525
0.486285
0.475764
0.465917
0.456732
0.448071
0.439884
0.432016
0.424422
0.417082
0.409963
0.403037
0.396269
0.389623
0.383064
0.376559
0.370073
0.363566
0.356992
0.350292
0.343392
0.336202
0.328622
0.320549
0.311894
0.302594