/*--------------------------------*- C++ -*----------------------------------*\
  =========                 |
  \\      /  F ield         | OpenFOAM: The Open Source CFD Toolbox
   \\    /   O peration     | Website:  https://openfoam.org
    \\  /    A nd           | Version:  9
     \\/     M anipulation  |
\*---------------------------------------------------------------------------*/
FoamFile
{
    format      ascii;
    class       volScalarField;
    location    "0.2";
    object      nut;
}
// * * * * * * * * * * * * * * * * * * * * * * * * * * * * * * * * * * * * * //

dimensions      [0 2 -1 0 0 0 0];

internalField   nonuniform List<scalar> 
12225
(
4.92149e-05
7.01691e-05
9.45051e-05
0.000115316
0.000128405
0.000135546
0.000140173
0.000144947
0.000151482
0.000160858
0.0001742
0.000193227
0.000221072
0.000264182
0.000338093
0.000490506
0.000944058
0.0039371
0.000392264
0.000354417
0.00033343
0.000328895
0.000321041
0.000309589
0.000296049
0.000281954
0.000268679
0.000257402
0.000249189
0.000245203
0.000247101
0.000257905
0.000284224
0.000343173
0.000493257
0.000921765
0.000648216
0.000565917
0.000596398
0.000633443
0.000644396
0.000634839
0.000613949
0.000589877
0.000568227
0.000552555
0.000545346
0.000549031
0.000567201
0.000606644
0.000681845
0.00082685
0.00112596
0.00177419
0.000789613
0.000730687
0.000724176
0.000743434
0.000753917
0.000750438
0.000737076
0.000720408
0.000706161
0.000698701
0.000701636
0.000718854
0.000755977
0.000822775
0.000937564
0.00113546
0.00147353
0.00201938
0.00087405
0.000849288
0.000811324
0.000789156
0.000775875
0.000764226
0.000752118
0.000741388
0.000735153
0.000736732
0.000749646
0.00077822
0.000828685
0.000910892
0.00104066
0.0012428
0.00153705
0.00191178
0.000930601
0.000933441
0.00088688
0.000845268
0.000811736
0.000786615
0.00076823
0.000756339
0.000752008
0.000757177
0.000774548
0.000807851
0.000862418
0.000945987
0.00106936
0.00124665
0.0014735
0.00171042
0.000964427
0.000995205
0.000944547
0.000897388
0.000855787
0.000823458
0.000800073
0.000785443
0.000780019
0.000784957
0.00080215
0.000834361
0.00088546
0.000960647
0.00106634
0.0012093
0.00137203
0.0015192
0.000978647
0.00103548
0.000990206
0.000943575
0.000898151
0.000862411
0.000836742
0.000820803
0.000814627
0.000818809
0.000834527
0.000863581
0.000908422
0.00097208
0.00105778
0.00116747
0.00127768
0.00136755
0.00098309
0.00105719
0.00102696
0.00098803
0.000942336
0.00090489
0.000878215
0.000862227
0.000856523
0.000860997
0.000875979
0.00090223
0.000940849
0.000993055
0.00105976
0.00113963
0.00120752
0.00125697
0.000988287
0.00107713
0.00106385
0.00103441
0.000990532
0.000953396
0.000927768
0.000913654
0.000909946
0.000915619
0.000930053
0.00095302
0.000984514
0.00102447
0.00107238
0.00112477
0.00115741
0.00117338
0.00102212
0.00111133
0.0010969
0.00106976
0.00102736
0.000992974
0.000970555
0.000958694
0.000955073
0.00095781
0.000965733
0.00097828
0.000995288
0.00101673
0.00104243
0.00106913
0.00107854
0.00108163
0.00105588
0.00112769
0.00110434
0.0010842
0.00105354
0.00102957
0.00101269
0.00100001
0.00098899
0.000978187
0.000967197
0.000956525
0.000947445
0.00094189
0.000942373
0.000949474
0.000957157
0.000993071
0.00107372
0.00111995
0.00110574
0.00111475
0.00111488
0.00111207
0.00110474
0.00109099
0.00107032
0.00104345
0.00101214
0.000978944
0.000947226
0.000921083
0.000905353
0.000902766
0.000923027
0.000980387
0.00106772
0.00107551
0.00107258
0.00110053
0.00112627
0.00114113
0.00114233
0.00112978
0.00110541
0.00107231
0.00103421
0.000995218
0.000959793
0.000932621
0.000918701
0.000918701
0.000950605
0.00101117
0.00103254
0.00102116
0.00101284
0.00101228
0.00101674
0.0010212
0.00102048
0.00101237
0.000997311
0.000977401
0.000955622
0.000935358
0.000920059
0.000913147
0.000918279
0.000931386
0.000972576
0.00102399
0.000986812
0.000988871
0.000995953
0.000975796
0.000958928
0.0009463
0.000936052
0.000926482
0.000917125
0.000908593
0.00090221
0.000899635
0.000902566
0.000912768
0.000932512
0.000952949
0.000998054
0.00103549
0.000935563
0.000961961
0.000998052
0.000977325
0.000956013
0.000937403
0.000922737
0.000911998
0.000905112
0.000902242
0.00090377
0.000910158
0.000921819
0.000939365
0.000964167
0.000983555
0.00102649
0.00104803
0.000889645
0.000932232
0.000991008
0.0009746
0.000955881
0.000939129
0.000926549
0.000918787
0.000915872
0.000917649
0.000923923
0.000934454
0.000948956
0.000967498
0.000991083
0.00100493
0.00104139
0.00104794
0.000860825
0.000901592
0.000964593
0.000952457
0.0009399
0.000930132
0.000924559
0.000923256
0.000925788
0.0009316
0.000940155
0.000950963
0.000963593
0.000978095
0.000995499
0.00100123
0.00102615
0.00102
0.000856479
0.000873757
0.00090943
0.000902344
0.000898689
0.000898515
0.000901284
0.000905851
0.000911247
0.00091686
0.00092239
0.000927748
0.000932982
0.000938533
0.00094559
0.000943764
0.000953631
0.000943975
0.00086006
0.000862343
0.00087755
0.000872263
0.00087037
0.000870621
0.000871818
0.000872776
0.000872976
0.000872327
0.000870992
0.000869266
0.000867527
0.000866371
0.00086693
0.000862297
0.000865594
0.000857549
0.000864176
0.000860224
0.000863403
0.000859881
0.000857098
0.000854091
0.00085011
0.0008446
0.000837615
0.000829567
0.000821016
0.000812556
0.000804734
0.000798152
0.0007938
0.000787464
0.000786446
0.000779548
0.000868088
0.000863927
0.000859217
0.000854932
0.000847629
0.000838108
0.000826737
0.000813814
0.000799895
0.000785626
0.000771654
0.000758583
0.000746925
0.000737183
0.000730087
0.000723402
0.000719758
0.00071372
0.000872301
0.000870977
0.000858196
0.000846219
0.00082948
0.000810955
0.000791732
0.000772414
0.000753525
0.000735533
0.00071885
0.00070385
0.000690885
0.000680319
0.000672682
0.000667176
0.000663052
0.000658332
0.000874905
0.000871795
0.000847216
0.00082213
0.000794981
0.000768723
0.000743932
0.000720809
0.000699504
0.000680171
0.000662977
0.000648114
0.000635804
0.00062634
0.000620155
0.000617494
0.000615523
0.000613383
0.00086738
0.000849501
0.000813159
0.000776829
0.000742484
0.000711427
0.000683622
0.000658933
0.00063724
0.000618481
0.000602659
0.000589842
0.000580181
0.000573943
0.000571597
0.000574173
0.000577959
0.000581054
0.000836132
0.000791522
0.000741584
0.000696863
0.000660506
0.000631525
0.000607956
0.000588475
0.000572347
0.000559214
0.000548943
0.00054155
0.000537192
0.000536179
0.000539156
0.000547916
0.000559741
0.000569933
0.000754101
0.000666596
0.000598337
0.000562666
0.000541705
0.000527527
0.000516425
0.000507112
0.00049928
0.000492979
0.000488386
0.000485738
0.00048533
0.000487558
0.000493095
0.000504023
0.000520757
0.000535919
0.000496267
0.000418351
0.000368781
0.000343724
0.000326723
0.000313648
0.00030288
0.000293737
0.000285976
0.000279551
0.000274502
0.000270913
0.000268908
0.000268663
0.000270485
0.000275299
0.000285048
0.00029743
8.06437e-05
9.52303e-05
0.000110212
0.000123353
0.000133201
0.000139266
0.000141822
0.000141752
0.000140115
0.000137814
0.000135501
0.00013363
0.00013253
0.000132452
0.000133754
0.000136973
0.000144514
0.000164913
1.7798e-05
0.000205333
0.000281547
0.00031231
0.000321786
0.000321489
0.000317
0.000311035
0.000304847
0.000298902
0.000293296
0.000287738
0.00028233
0.000277053
0.000271744
0.000266213
0.00026041
0.000254354
0.000248401
0.00024303
0.000238849
0.000236363
0.000236002
0.000238096
0.000242802
0.00024998
0.000258825
0.000267412
0.000273416
0.000278643
0.000285896
0.000297731
0.000316138
0.000325952
0.000336423
8.78464e-05
0.00039213
0.000101273
0.000109862
0.000111537
0.000111942
0.000112714
0.000114111
0.000116221
0.000119065
0.000122631
0.000126887
0.000131792
0.000137302
0.000143372
0.000149957
0.000157013
0.000164501
0.000172383
0.000180625
0.000189198
0.000198075
0.000207236
0.000216664
0.000226344
0.000236267
0.000246418
0.000256776
0.000267298
0.000277939
0.00028868
0.000299478
0.000310298
0.000321113
0.000331906
0.000342673
0.000353417
0.000364153
0.000374903
0.000385695
0.000396563
0.000407541
0.000418662
0.000429969
0.000441542
0.000453497
0.000465929
0.000478895
0.000492395
0.000506383
0.000520963
0.000536759
0.000554051
0.00057305
0.000593327
0.000613028
0.000630136
0.000637881
0.000637579
0.000639694
0.000646216
0.000651867
0.000653584
0.000653302
0.000651095
0.000645989
0.000638522
0.000630526
0.000623286
0.000617648
0.0006142
0.000613182
0.000614082
0.000615918
0.000618417
0.000621782
0.000626114
0.000631342
0.000637542
0.000644894
0.00065368
0.000664198
0.000676709
0.000691406
0.000708391
0.000727636
0.000748626
0.000769095
0.00078143
0.000770747
0.000728943
0.000680606
0.000666593
0.000655562
0.000638869
0.000591744
0.00247654
0.000531494
0.00208955
0.00196795
0.00170415
0.000378889
0.00149376
0.00139238
0.00129296
0.00120061
0.00111537
0.0010414
0.000975378
0.000915184
0.000860058
0.000809759
0.000764121
0.000722967
0.000686149
0.000653403
0.000624422
0.000598868
0.000576391
0.000556714
0.000539584
0.000524714
0.00051183
0.000500669
0.000490954
0.000482366
0.000474565
0.00046725
0.000460198
0.000453244
0.000446162
0.000438735
0.000430864
0.000422625
0.000414016
0.000404679
0.000394742
0.000383745
0.00037121
0.000356755
0.000340136
0.000321258
0.000300132
0.000276892
0.00025205
6.71631e-05
6.94299e-05
9.57823e-05
0.000110357
0.000118225
0.000123373
0.000127989
0.000133139
0.000139271
0.000146608
0.000155426
0.000165602
0.000176986
0.000189419
0.000202604
0.000216703
0.000231398
0.000246799
0.00026351
0.000281395
0.000300013
0.000318727
0.000336819
0.000353553
0.000368287
0.000380654
0.0003908
0.000399428
0.000407281
0.000414333
0.000419789
0.000423135
0.000425624
0.000429897
0.000436533
0.000439551
0.000442096
0.000450311
0.000456358
0.000466618
0.00048185
0.000500202
0.00052123
0.000544265
0.000568845
0.000594628
0.000621341
0.00064876
0.000676691
0.000704962
0.000733422
0.000761937
0.000790391
0.000818687
0.000846745
0.000874503
0.000901914
0.000928944
0.000955568
0.000981766
0.00100751
0.00103276
0.00105743
0.00108144
0.00110468
0.00112713
0.00114879
0.00116973
0.00119
0.00120969
0.00122889
0.00124768
0.00126619
0.00128453
0.00130281
0.00132114
0.00133963
0.00135839
0.00137751
0.00139705
0.00141702
0.00143744
0.00145814
0.0014789
0.00149907
0.00151805
0.00153542
0.00155084
0.00156368
0.00157239
0.00157556
0.00157041
0.00155379
0.00152693
0.00149123
0.00145047
0.00140734
0.00136352
0.00132048
0.00127946
0.00124145
0.00120713
0.0011768
0.00115054
0.00112815
0.00110934
0.00109374
0.00108096
0.00107054
0.00106209
0.00105537
0.00105013
0.00104616
0.00104321
0.00104098
0.00103906
0.00103701
0.00103427
0.00103022
0.00102408
0.00101479
0.00100106
0.000980836
0.000952729
0.000922436
0.000877694
0.000871641
0.000854446
0.000829744
0.000807722
0.000802418
0.000795539
0.000791371
0.000798223
0.000746586
0.000764871
0.000781581
0.000808729
0.000829373
0.000844927
0.000857579
0.000868457
0.000878525
0.000888281
0.000897942
0.000907583
0.000917237
0.000926824
0.000936386
0.000945819
0.00095503
0.000963905
0.000972332
0.000980194
0.000987375
0.000993759
0.000999208
0.00100359
0.00100677
0.00100865
0.00100907
0.00100787
0.00100487
0.000999916
0.000992949
0.000983974
0.000973068
0.000960634
0.000947432
0.000935631
0.00092242
0.000902893
0.000876508
0.000843246
0.00080361
0.000758293
0.000707876
0.00065232
0.000589956
0.000522474
0.00013338
8.04744e-05
9.59325e-05
0.000104169
0.000106367
0.000106988
0.000108291
0.000111069
0.000115527
0.000121872
0.000130119
0.000140245
0.000152335
0.000166373
0.000182191
0.000199831
0.000219414
0.000240787
0.000263618
0.00028743
0.000311608
0.000335545
0.000358633
0.000380313
0.000400203
0.000418256
0.000434797
0.000450422
0.000465677
0.00048076
0.00049567
0.000510816
0.000526901
0.000544897
0.00056341
0.000584646
0.000604224
0.000629129
0.000652593
0.000681626
0.00071462
0.000752426
0.000794035
0.000838747
0.000885876
0.000934826
0.00098508
0.0010362
0.00108784
0.0011397
0.00119156
0.00124324
0.00129459
0.00134552
0.00139594
0.00144581
0.00149507
0.0015437
0.00159166
0.00163891
0.00168537
0.00173098
0.00177563
0.00181927
0.00186192
0.00190369
0.0019447
0.00198506
0.00202492
0.0020644
0.00210364
0.00214276
0.00218193
0.0022212
0.00226062
0.00230018
0.00233992
0.0023798
0.00241966
0.00245915
0.00249773
0.00253457
0.00256876
0.00259936
0.00262498
0.00264426
0.00265513
0.00265569
0.00264426
0.00261901
0.00258121
0.00253533
0.00248392
0.00242697
0.00236474
0.00229519
0.0022225
0.00214887
0.00207659
0.00200772
0.0019439
0.00188616
0.00183487
0.00179013
0.00175177
0.00171949
0.00169303
0.00167212
0.00165642
0.00164555
0.00163914
0.00163676
0.00163802
0.00164243
0.00164947
0.00165855
0.001669
0.00168003
0.00169071
0.00169985
0.00170578
0.00170618
0.0016983
0.00167625
0.00165677
0.00162251
0.00163398
0.00161361
0.00158646
0.00155683
0.00154832
0.00153155
0.00152445
0.0015246
0.00144098
0.00146891
0.00149137
0.00151513
0.00153059
0.00154197
0.0015528
0.00156433
0.00157753
0.00159241
0.00160866
0.00162593
0.00164392
0.00166262
0.00168222
0.00170267
0.00172357
0.0017446
0.0017655
0.00178606
0.00180613
0.00182555
0.00184415
0.00186178
0.00187831
0.00189361
0.00190749
0.00191963
0.00192963
0.00193709
0.00194171
0.00194328
0.00194131
0.00193525
0.00192459
0.00189862
0.00184979
0.00178193
0.00169983
0.00160707
0.0015063
0.00139915
0.00128585
0.00116408
0.00102663
0.000865371
0.000218043
8.94556e-05
0.000100737
0.000106431
0.000103866
9.99248e-05
9.73751e-05
9.68362e-05
9.84321e-05
0.000102102
0.000107794
0.000115625
0.00012561
0.000137739
0.000152075
0.000168643
0.000187402
0.000208238
0.00023091
0.000255072
0.000280309
0.000306163
0.000332165
0.000357899
0.000383078
0.000407624
0.000431663
0.000455434
0.000479169
0.000503029
0.000527229
0.000552213
0.000578546
0.000606532
0.000635846
0.000666487
0.00069884
0.000732788
0.000768921
0.000807876
0.000850293
0.000896229
0.000945251
0.000996817
0.00105037
0.00110539
0.0011614
0.00121797
0.00127478
0.00133155
0.00138808
0.00144422
0.00149986
0.00155493
0.00160938
0.0016632
0.00171638
0.00176892
0.00182081
0.00187206
0.00192265
0.00197256
0.00202177
0.0020703
0.0021182
0.0021656
0.00221264
0.00225949
0.00230631
0.00235327
0.00240056
0.00244834
0.00249677
0.00254586
0.0025956
0.00264595
0.00269682
0.00274809
0.00279954
0.00285087
0.00290162
0.00295111
0.00299852
0.00304267
0.00308223
0.00311543
0.00314039
0.00315511
0.00315775
0.00314657
0.0031208
0.00308277
0.00303652
0.00298399
0.00292561
0.00286131
0.00278915
0.0027126
0.00263519
0.00255934
0.00248674
0.00241816
0.00235434
0.00229567
0.00224247
0.00219495
0.00215331
0.00211767
0.00208802
0.00206415
0.00204571
0.0020323
0.00202341
0.00201852
0.00201702
0.00201826
0.00202152
0.00202602
0.00203088
0.00203502
0.00203704
0.00203507
0.00202729
0.00201185
0.00199805
0.00199188
0.00198546
0.00197234
0.00195018
0.00192338
0.00190228
0.00188084
0.00185654
0.00182473
0.00179271
0.00177135
0.00176433
0.00176047
0.00175742
0.00175788
0.0017626
0.00177189
0.00178513
0.00180146
0.00182002
0.00183997
0.00186073
0.00188208
0.00190382
0.00192615
0.00194887
0.0019714
0.00199337
0.00201448
0.00203456
0.00205343
0.00207098
0.00208712
0.00210175
0.00211481
0.00212619
0.0021357
0.00214309
0.00214813
0.00215066
0.00215051
0.00214693
0.00213917
0.00212584
0.00209868
0.00205269
0.00198992
0.00191263
0.00182374
0.00172551
0.00161919
0.00150461
0.00137926
0.00123782
0.00108151
0.000321126
9.88791e-05
0.000112575
0.000117003
0.000109308
0.000100744
9.47617e-05
9.18013e-05
9.16465e-05
9.39944e-05
9.87131e-05
0.000105688
0.000114822
0.000126103
0.00013955
0.000155181
0.000173001
0.000192973
0.000215007
0.000238948
0.000264582
0.000291648
0.000319858
0.000348927
0.000378612
0.000408756
0.000439296
0.000470241
0.000501635
0.00053355
0.000566141
0.000599688
0.000634536
0.000670903
0.000708776
0.000748124
0.000789064
0.000831675
0.000876118
0.000922642
0.000971473
0.00102256
0.00107562
0.0011303
0.00118621
0.00124295
0.00130019
0.00135759
0.00141489
0.00147187
0.00152835
0.00158422
0.00163937
0.00169376
0.00174734
0.00180012
0.00185209
0.00190327
0.00195369
0.00200336
0.0020523
0.00210054
0.00214811
0.00219505
0.00224145
0.00228742
0.00233312
0.00237869
0.0024243
0.00247011
0.00251629
0.00256302
0.00261038
0.00265838
0.00270694
0.00275604
0.00280566
0.00285581
0.00290634
0.00295694
0.00300724
0.00305668
0.00310451
0.0031498
0.00319146
0.00322824
0.00325879
0.00328182
0.00329617
0.00330095
0.00329568
0.00328103
0.00325862
0.00322987
0.00319547
0.00315562
0.00310986
0.00305777
0.00299969
0.00293845
0.00287586
0.00281327
0.00275178
0.00269217
0.00263515
0.00258138
0.00253149
0.00248599
0.00244521
0.00240925
0.002378
0.00235119
0.00232847
0.00230938
0.00229341
0.00227997
0.00226844
0.00225813
0.0022483
0.00223806
0.00222639
0.00221206
0.00219433
0.00217376
0.00215594
0.00214888
0.00214546
0.00213635
0.00211657
0.00209232
0.00206632
0.00204112
0.00200734
0.0019632
0.00192639
0.00189984
0.00188846
0.00187794
0.00186714
0.00185917
0.00185579
0.00185749
0.00186352
0.00187317
0.00188556
0.00189986
0.00191544
0.00193179
0.00194874
0.00196609
0.00198399
0.00200182
0.00201906
0.00203539
0.00205057
0.00206443
0.00207682
0.00208763
0.00209677
0.00210418
0.00210978
0.00211342
0.00211497
0.00211425
0.00211117
0.0021054
0.00209621
0.00208316
0.00206393
0.00203459
0.00199361
0.00194071
0.00187612
0.00180143
0.00171804
0.0016267
0.00152718
0.00141783
0.00129676
0.00117128
0.000442529
0.000108738
0.00013035
0.000133303
0.000119371
0.000105864
9.66752e-05
9.17391e-05
9.03263e-05
9.18875e-05
9.60453e-05
0.000102539
0.00011125
0.000122145
0.000135241
0.000150583
0.000168223
0.000188202
0.000210532
0.000235186
0.000262091
0.000291125
0.000322121
0.000354876
0.00038917
0.000424794
0.00046157
0.000499365
0.000538094
0.000577732
0.000618325
0.000659995
0.000702903
0.000747174
0.000792853
0.000839944
0.000888465
0.000938437
0.000989876
0.00104281
0.00109725
0.00115309
0.00121011
0.00126807
0.0013267
0.0013857
0.00144483
0.00150382
0.00156248
0.00162061
0.00167807
0.00173473
0.00179052
0.00184537
0.00189925
0.00195213
0.00200402
0.00205492
0.00210485
0.00215383
0.00220189
0.00224906
0.00229539
0.00234092
0.00238574
0.00242996
0.00247368
0.00251703
0.00256017
0.00260321
0.00264629
0.00268953
0.00273298
0.00277666
0.00282048
0.00286448
0.00290865
0.00295295
0.00299722
0.00304124
0.00308466
0.00312702
0.00316773
0.00320607
0.0032412
0.00327227
0.0032984
0.00331885
0.00333307
0.0033408
0.00334212
0.00333754
0.00332795
0.00331413
0.00329646
0.00327503
0.00324948
0.00321922
0.00318375
0.00314271
0.00309676
0.00304781
0.00299703
0.0029454
0.00289371
0.0028428
0.00279344
0.00274636
0.00270209
0.00266101
0.00262326
0.00258882
0.00255753
0.00252912
0.00250321
0.00247938
0.00245713
0.00243591
0.00241513
0.0023941
0.00237206
0.00234828
0.00232257
0.00229614
0.00227273
0.00225746
0.00224699
0.00223291
0.00221091
0.00218463
0.00215598
0.00212551
0.00208792
0.00204131
0.00199907
0.00197204
0.00195838
0.00194568
0.00193187
0.0019191
0.00190966
0.001904
0.00190231
0.00190411
0.00190878
0.00191571
0.00192431
0.00193411
0.00194472
0.00195597
0.00196767
0.00197971
0.00199132
0.00200217
0.00201204
0.00202074
0.0020281
0.002034
0.00203834
0.00204104
0.00204199
0.0020411
0.00203822
0.00203324
0.00202601
0.00201608
0.00200322
0.00198684
0.00196424
0.00193431
0.00189714
0.00185154
0.001797
0.00173414
0.0016637
0.00158612
0.00150135
0.00140875
0.00130891
0.00120984
0.000588531
0.000119184
0.000152463
0.000152752
0.000131649
0.000112978
0.000100691
9.39166e-05
9.14399e-05
9.23768e-05
9.61426e-05
0.000102413
0.000111032
0.000121959
0.000135223
0.000150901
0.000169095
0.00018991
0.000213438
0.000239738
0.000268824
0.00030065
0.000335107
0.000372025
0.000411186
0.000452339
0.000495234
0.000539642
0.000585381
0.000632324
0.00068041
0.00072963
0.000780013
0.00083159
0.000884372
0.000938347
0.000993495
0.00104978
0.00110717
0.0011656
0.00122499
0.00128523
0.00134616
0.00140759
0.00146931
0.00153113
0.00159283
0.00165424
0.00171517
0.00177548
0.00183504
0.00189374
0.00195149
0.00200822
0.00206389
0.00211847
0.00217193
0.00222427
0.00227549
0.0023256
0.00237462
0.00242256
0.00246947
0.00251538
0.00256035
0.00260446
0.00264779
0.00269044
0.0027325
0.00277407
0.00281523
0.00285606
0.0028966
0.00293684
0.00297675
0.00301633
0.00305554
0.00309431
0.0031325
0.00316988
0.00320617
0.00324097
0.00327382
0.00330416
0.00333138
0.00335489
0.00337412
0.00338864
0.0033982
0.00340284
0.00340283
0.00339871
0.00339111
0.0033806
0.00336748
0.00335185
0.00333356
0.00331218
0.00328711
0.00325786
0.00322441
0.00318667
0.00314555
0.00310232
0.00305777
0.00301261
0.00296759
0.00292338
0.00288059
0.00283966
0.0028009
0.00276441
0.00273019
0.00269813
0.00266798
0.00263946
0.00261221
0.00258579
0.00255973
0.00253352
0.00250661
0.00247855
0.00244938
0.00242014
0.00239315
0.00237104
0.00235216
0.00233128
0.00230546
0.00227614
0.0022444
0.00221005
0.00217071
0.00212564
0.00208344
0.00205379
0.00203485
0.00201821
0.00200119
0.00198467
0.00197031
0.00195874
0.00195042
0.00194526
0.00194292
0.00194297
0.00194497
0.00194851
0.00195314
0.00195864
0.00196476
0.00197145
0.00197803
0.00198404
0.00198932
0.00199367
0.00199693
0.00199898
0.00199968
0.00199893
0.00199663
0.00199265
0.00198687
0.00197916
0.0019693
0.00195714
0.00194233
0.00192364
0.00189937
0.00186963
0.00183473
0.00179348
0.00174524
0.00169012
0.00162848
0.00156063
0.00148671
0.0014069
0.00132305
0.00124145
0.000768793
0.00012997
0.000177022
0.000172559
0.000144105
0.000120613
0.000105571
9.72675e-05
9.39632e-05
9.44628e-05
9.80565e-05
0.000104358
0.000113191
0.000124513
0.000138376
0.00015489
0.000174203
0.000196474
0.000221855
0.00025046
0.000282353
0.000317521
0.000355877
0.000397248
0.000441392
0.00048802
0.000536817
0.00058748
0.00063974
0.000693381
0.000748243
0.000804216
0.000861232
0.000919242
0.000978207
0.00103809
0.00109883
0.00116038
0.00122268
0.00128566
0.00134921
0.00141324
0.00147763
0.00154222
0.00160687
0.00167142
0.00173571
0.00179961
0.00186298
0.00192567
0.00198759
0.00204864
0.00210873
0.00216779
0.00222577
0.00228263
0.00233833
0.00239285
0.00244618
0.00249832
0.00254926
0.00259902
0.0026476
0.00269505
0.00274138
0.00278664
0.00283089
0.00287419
0.00291659
0.00295817
0.00299896
0.003039
0.00307833
0.00311691
0.00315476
0.00319182
0.00322804
0.00326333
0.00329755
0.00333051
0.00336195
0.00339156
0.00341897
0.00344375
0.00346547
0.00348369
0.00349801
0.00350815
0.00351398
0.00351557
0.00351316
0.00350717
0.00349806
0.00348626
0.0034721
0.00345576
0.00343729
0.00341657
0.00339332
0.00336723
0.00333815
0.00330603
0.00327107
0.00323323
0.00319347
0.00315277
0.0031117
0.00307084
0.00303069
0.00299167
0.00295408
0.00291809
0.00288376
0.00285105
0.00281982
0.00278986
0.0027609
0.0027326
0.00270461
0.0026765
0.00264791
0.00261853
0.00258844
0.0025583
0.0025294
0.00250288
0.00247783
0.00245143
0.00242195
0.00238971
0.00235518
0.0023182
0.00227796
0.00223474
0.00219372
0.00216105
0.00213608
0.00211416
0.00209293
0.0020724
0.00205349
0.0020368
0.00202288
0.00201186
0.00200353
0.00199763
0.00199381
0.00199169
0.001991
0.0019914
0.00199273
0.00199472
0.00199698
0.00199889
0.00200028
0.00200099
0.00200088
0.00199978
0.00199756
0.00199409
0.00198925
0.00198292
0.00197495
0.00196522
0.0019536
0.00193998
0.00192356
0.00190288
0.00187735
0.00184758
0.00181357
0.00177445
0.00172963
0.00167902
0.00162279
0.00156119
0.00149459
0.00142359
0.00135049
0.00127946
0.000993962
0.000140896
0.000201341
0.000191094
0.000155982
0.000128404
0.000111108
0.000101617
9.77201e-05
9.80065e-05
0.000101662
0.000108252
0.000117587
0.000129632
0.000144461
0.000162216
0.000183083
0.000207263
0.000234946
0.000266283
0.00030136
0.000340176
0.000382634
0.00042854
0.000477613
0.000529512
0.00058386
0.000640282
0.000698434
0.000758018
0.000818795
0.000880578
0.00094323
0.00100665
0.00107075
0.00113547
0.00120075
0.00126654
0.00133276
0.00139935
0.00146624
0.00153333
0.00160055
0.00166777
0.00173489
0.00180178
0.00186833
0.00193442
0.00199994
0.00206478
0.00212884
0.00219203
0.00225427
0.0023155
0.00237565
0.00243468
0.00249255
0.00254923
0.00260469
0.00265892
0.0027119
0.00276363
0.00281411
0.00286335
0.00291137
0.00295818
0.00300382
0.00304832
0.00309171
0.00313402
0.00317528
0.00321551
0.00325472
0.00329288
0.00332998
0.00336598
0.00340082
0.00343439
0.00346657
0.0034972
0.00352607
0.00355292
0.00357747
0.0035994
0.00361836
0.00363404
0.00364615
0.00365446
0.00365888
0.0036594
0.00365619
0.00364947
0.00363956
0.00362676
0.00361135
0.00359354
0.00357352
0.00355136
0.00352705
0.00350057
0.0034719
0.00344106
0.00340814
0.00337322
0.00333658
0.00329842
0.0032596
0.00322084
0.00318253
0.003145
0.00310851
0.00307322
0.0030392
0.00300643
0.00297483
0.00294422
0.00291441
0.00288513
0.00285608
0.00282696
0.00279747
0.00276743
0.00273684
0.00270607
0.00267573
0.00264624
0.00261704
0.0025867
0.00255425
0.00251964
0.00248304
0.00244447
0.00240387
0.00236197
0.00232183
0.00228689
0.00225716
0.00223035
0.00220485
0.00218029
0.00215712
0.00213582
0.00211709
0.00210107
0.00208767
0.00207668
0.00206784
0.00206083
0.0020554
0.00205137
0.00204848
0.00204641
0.00204491
0.00204328
0.00204129
0.00203883
0.00203573
0.00203183
0.00202698
0.00202102
0.00201384
0.00200529
0.00199527
0.00198367
0.0019704
0.0019549
0.0019362
0.00191335
0.00188639
0.0018559
0.00182168
0.00178313
0.00173978
0.00169147
0.0016383
0.00158054
0.00151864
0.00145345
0.0013872
0.00132235
0.00127395
0.000152755
0.000224233
0.000208413
0.000167546
0.000136589
0.000117505
0.000107134
0.000102902
0.000103219
0.000107181
0.00011432
0.000124437
0.000137508
0.000153626
0.00017296
0.000195723
0.000222146
0.000252442
0.000286777
0.000325244
0.000367833
0.000414423
0.000464782
0.00051858
0.000575413
0.000634841
0.000696417
0.000759728
0.000824408
0.000890157
0.000956735
0.00102396
0.00109171
0.00115987
0.00122837
0.00129715
0.00136617
0.00143537
0.0015047
0.00157412
0.00164356
0.00171296
0.00178223
0.00185129
0.00192006
0.00198843
0.00205631
0.0021236
0.00219021
0.00225606
0.00232105
0.00238512
0.00244819
0.00251021
0.00257112
0.00263087
0.00268942
0.00274675
0.00280282
0.00285762
0.00291113
0.00296334
0.00301424
0.00306384
0.00311214
0.00315915
0.00320489
0.00324938
0.00329262
0.00333462
0.0033754
0.00341495
0.00345325
0.00349028
0.003526
0.00356034
0.00359322
0.00362452
0.00365412
0.00368184
0.00370747
0.0037308
0.00375157
0.00376953
0.00378441
0.003796
0.00380411
0.00380862
0.00380952
0.00380684
0.00380071
0.00379131
0.00377883
0.00376348
0.00374547
0.00372499
0.00370222
0.00367729
0.00365032
0.00362142
0.00359074
0.00355838
0.00352451
0.00348931
0.00345301
0.00341594
0.00337836
0.00334084
0.00330385
0.00326763
0.0032323
0.00319793
0.0031645
0.00313196
0.00310019
0.00306903
0.00303827
0.00300768
0.00297704
0.00294614
0.00291482
0.00288304
0.00285095
0.00281884
0.00278683
0.00275456
0.00272129
0.0026865
0.00265008
0.00261213
0.00257282
0.00253244
0.00249167
0.00245224
0.002416
0.00238324
0.00235291
0.00232405
0.0022963
0.00226982
0.00224512
0.00222272
0.00220276
0.00218524
0.00217004
0.00215698
0.00214589
0.00213653
0.00212872
0.00212224
0.00211672
0.00211191
0.00210719
0.00210224
0.00209692
0.00209107
0.00208452
0.00207711
0.00206868
0.00205909
0.00204822
0.00203601
0.00202229
0.00200661
0.00198832
0.00196666
0.00194129
0.00191253
0.00188062
0.00184536
0.00180632
0.00176313
0.00171567
0.00166402
0.00160844
0.00154945
0.00148794
0.00142593
0.00136464
0.001618
0.000165997
0.000246085
0.000224904
0.000179311
0.00014567
0.000125237
0.000114301
0.000109996
0.000110585
0.0001151
0.000123044
0.000134214
0.000148593
0.00016629
0.000187489
0.000212422
0.000241334
0.000274448
0.000311932
0.000353865
0.000400217
0.000450829
0.000505422
0.000563609
0.000624922
0.000688854
0.000754891
0.000822554
0.000891426
0.000961162
0.0010315
0.00110223
0.00117321
0.00124436
0.0013156
0.00138689
0.0014582
0.0015295
0.00160077
0.00167197
0.00174307
0.00181403
0.00188479
0.00195529
0.00202546
0.00209523
0.0021645
0.0022332
0.00230125
0.00236855
0.00243504
0.00250063
0.00256526
0.00262886
0.00269138
0.00275275
0.00281293
0.00287188
0.00292956
0.00298595
0.00304102
0.00309476
0.00314714
0.00319815
0.00324781
0.00329609
0.003343
0.00338855
0.00343274
0.00347558
0.00351705
0.00355715
0.00359586
0.00363316
0.00366901
0.00370335
0.00373611
0.0037672
0.00379649
0.00382386
0.00384913
0.00387213
0.00389264
0.00391046
0.00392539
0.00393722
0.00394581
0.00395102
0.0039528
0.00395113
0.00394607
0.00393771
0.00392618
0.00391164
0.00389426
0.00387425
0.0038518
0.00382709
0.00380032
0.00377166
0.00374129
0.0037094
0.00367615
0.00364174
0.00360637
0.00357027
0.00353367
0.00349687
0.00346008
0.00342354
0.00338748
0.00335202
0.00331719
0.00328298
0.00324929
0.00321603
0.00318303
0.00315015
0.0031172
0.003084
0.0030505
0.00301668
0.0029826
0.00294833
0.00291384
0.00287894
0.00284325
0.0028065
0.00276866
0.00272985
0.00269028
0.00265022
0.00261024
0.0025713
0.00253442
0.00249993
0.00246745
0.00243645
0.00240675
0.00237837
0.00235175
0.00232721
0.00230486
0.00228474
0.00226679
0.0022509
0.00223692
0.00222464
0.00221387
0.00220444
0.00219605
0.0021884
0.00218106
0.00217353
0.00216567
0.00215728
0.00214821
0.00213827
0.00212733
0.00211527
0.00210192
0.00208708
0.00207043
0.0020515
0.00202978
0.00200485
0.00197677
0.00194577
0.00191191
0.00187499
0.00183473
0.00179087
0.00174331
0.00169214
0.00163764
0.00158031
0.00152102
0.00146151
0.00140222
0.00203974
0.000180928
0.000267229
0.000241445
0.00019219
0.000156502
0.0001351
0.000123869
0.000119724
0.000120817
0.000126125
0.000135127
0.000147612
0.000163563
0.000183091
0.000206389
0.000233695
0.000265256
0.000301291
0.000341955
0.000387302
0.000437266
0.000491646
0.00055011
0.000612213
0.000677428
0.000745183
0.000814901
0.000886048
0.000958167
0.00103089
0.00110394
0.00117713
0.00125032
0.00132344
0.00139644
0.00146932
0.00154205
0.00161464
0.0016871
0.0017594
0.00183155
0.00190351
0.00197525
0.00204674
0.0021179
0.00218868
0.00225901
0.00232881
0.00239799
0.0024665
0.00253423
0.00260112
0.00266709
0.00273207
0.002796
0.00285881
0.00292044
0.00298086
0.00304001
0.00309785
0.00315436
0.0032095
0.00326326
0.00331561
0.00336654
0.00341605
0.00346412
0.00351076
0.00355596
0.00359971
0.003642
0.00368284
0.00372219