/*--------------------------------*- C++ -*----------------------------------*\
  =========                 |
  \\      /  F ield         | OpenFOAM: The Open Source CFD Toolbox
   \\    /   O peration     | Website:  https://openfoam.org
    \\  /    A nd           | Version:  9
     \\/     M anipulation  |
\*---------------------------------------------------------------------------*/
FoamFile
{
    format      ascii;
    class       volScalarField;
    location    "0.2";
    object      p;
}
// * * * * * * * * * * * * * * * * * * * * * * * * * * * * * * * * * * * * * //

dimensions      [0 2 -2 0 0 0 0];

internalField   nonuniform List<scalar> 
12225
(
1798.81
1784.06
1765.94
1752.23
1740.04
1728.6
1717.77
1707.43
1697.52
1687.94
1678.63
1669.49
1660.44
1651.35
1642.04
1632.25
1621.47
1608.25
1798.56
1783.81
1765.77
1752.14
1739.97
1728.54
1717.71
1707.37
1697.46
1687.88
1678.56
1669.42
1660.37
1651.28
1641.99
1632.23
1621.6
1609.38
1798.74
1783.56
1765.47
1751.96
1739.82
1728.41
1717.58
1707.26
1697.34
1687.77
1678.45
1669.32
1660.27
1651.21
1641.97
1632.35
1622.09
1610.99
1798.77
1783.15
1765.05
1751.66
1739.57
1728.19
1717.39
1707.07
1697.16
1687.59
1678.28
1669.16
1660.14
1651.13
1641.99
1632.58
1622.75
1612.52
1798.4
1782.58
1764.5
1751.26
1739.24
1727.89
1717.11
1706.81
1696.91
1687.35
1678.06
1668.96
1659.98
1651.03
1642.03
1632.85
1623.43
1613.92
1797.7
1781.88
1763.86
1750.76
1738.82
1727.51
1716.76
1706.48
1696.59
1687.05
1677.77
1668.71
1659.78
1650.93
1642.07
1633.12
1624.08
1615.24
1796.8
1781.12
1763.19
1750.19
1738.33
1727.07
1716.35
1706.09
1696.22
1686.7
1677.45
1668.43
1659.57
1650.81
1642.11
1633.4
1624.73
1616.5
1795.79
1780.33
1762.51
1749.59
1737.79
1726.58
1715.89
1705.65
1695.81
1686.31
1677.1
1668.13
1659.34
1650.71
1642.17
1633.69
1625.39
1617.71
1794.75
1779.56
1761.85
1748.96
1737.22
1726.05
1715.39
1705.18
1695.36
1685.89
1676.73
1667.82
1659.12
1650.6
1642.23
1633.99
1626.05
1618.83
1793.73
1778.81
1761.24
1748.35
1736.63
1725.49
1714.85
1704.67
1694.88
1685.44
1676.32
1667.48
1658.88
1650.48
1642.28
1634.27
1626.67
1619.83
1792.73
1778.08
1760.65
1747.74
1736.03
1724.92
1714.31
1704.15
1694.39
1685
1675.93
1667.15
1658.64
1650.38
1642.34
1634.55
1627.24
1620.72
1791.8
1777.31
1760.04
1747.13
1735.42
1724.33
1713.74
1703.61
1693.89
1684.55
1675.54
1666.84
1658.43
1650.29
1642.41
1634.82
1627.76
1621.58
1790.71
1776.47
1759.45
1746.5
1734.8
1723.73
1713.17
1703.08
1693.4
1684.1
1675.15
1666.54
1658.22
1650.21
1642.49
1635.1
1628.28
1622.26
1789.03
1775.41
1758.83
1745.92
1734.24
1723.2
1712.69
1702.63
1693
1683.76
1674.88
1666.35
1658.14
1650.24
1642.67
1635.45
1628.85
1622.92
1787.06
1774.21
1758.17
1745.35
1733.73
1722.74
1712.27
1702.27
1692.7
1683.52
1674.72
1666.27
1658.16
1650.38
1642.93
1635.85
1629.42
1623.52
1784.94
1772.85
1757.4
1744.76
1733.25
1722.35
1711.96
1702.04
1692.54
1683.45
1674.73
1666.37
1658.36
1650.69
1643.34
1636.36
1630.06
1624.12
1782.89
1771.44
1756.54
1744.15
1732.8
1722.02
1711.74
1701.91
1692.51
1683.51
1674.88
1666.62
1658.69
1651.11
1643.84
1636.91
1630.67
1624.67
1781.14
1770.14
1755.69
1743.56
1732.38
1721.75
1711.59
1701.88
1692.58
1683.67
1675.12
1666.93
1659.08
1651.54
1644.31
1637.4
1631.17
1625.06
1780.05
1769.23
1755.02
1743.09
1732.08
1721.58
1711.54
1701.92
1692.7
1683.85
1675.36
1667.21
1659.38
1651.85
1644.61
1637.68
1631.42
1625.2
1780.15
1769.18
1754.92
1743.03
1732.07
1721.61
1711.61
1702.01
1692.8
1683.95
1675.45
1667.27
1659.42
1651.86
1644.58
1637.6
1631.25
1625.01
1780.63
1769.39
1754.96
1743.05
1732.11
1721.67
1711.68
1702.08
1692.86
1684
1675.47
1667.27
1659.38
1651.78
1644.46
1637.43
1631.02
1624.77
1781.27
1769.71
1755.06
1743.13
1732.19
1721.75
1711.75
1702.14
1692.89
1684
1675.44
1667.21
1659.27
1651.63
1644.26
1637.18
1630.69
1624.42
1782.01
1770.08
1755.2
1743.24
1732.3
1721.85
1711.82
1702.18
1692.91
1683.99
1675.39
1667.11
1659.14
1651.45
1644.03
1636.89
1630.3
1624.01
1782.77
1770.45
1755.35
1743.38
1732.43
1721.96
1711.9
1702.24
1692.93
1683.97
1675.34
1667.02
1659
1651.26
1643.78
1636.58
1629.89
1623.56
1783.48
1770.78
1755.52
1743.55
1732.57
1722.07
1711.99
1702.3
1692.96
1683.97
1675.3
1666.94
1658.88
1651.09
1643.56
1636.29
1629.49
1623.11
1784.05
1771.07
1755.7
1743.72
1732.72
1722.19
1712.08
1702.36
1692.99
1683.97
1675.27
1666.88
1658.78
1650.95
1643.37
1636.04
1629.11
1622.66
1784.31
1771.29
1755.89
1743.89
1732.86
1722.3
1712.17
1702.42
1693.03
1683.98
1675.26
1666.84
1658.7
1650.84
1643.22
1635.83
1628.79
1622.22
1784.13
1771.41
1756.05
1744.02
1732.97
1722.39
1712.23
1702.46
1693.05
1683.99
1675.24
1666.81
1658.65
1650.76
1643.11
1635.68
1628.53
1621.8
1783.65
1771.44
1756.16
1744.1
1733.04
1722.44
1712.27
1702.49
1693.07
1683.99
1675.23
1666.78
1658.62
1650.71
1643.04
1635.59
1628.35
1621.43
1783.61
1771.58
1756.25
1744.14
1733.07
1722.47
1712.29
1702.5
1693.07
1683.99
1675.23
1666.77
1658.6
1650.69
1643.02
1635.55
1628.29
1621.2
1445.18
1445.22
1445.23
1445.2
1445.14
1445.02
1444.86
1444.64
1444.36
1443.99
1443.54
1443.01
1442.38
1441.64
1440.8
1439.85
1438.79
1437.63
1436.41
1435.15
1433.87
1432.55
1431.19
1429.78
1428.32
1426.81
1425.23
1423.61
1421.92
1420.18
1418.39
1416.55
1414.67
1412.7
1410.7
1408.76
1406.51
1404.14
1401.89
1399.37
1396.68
1393.97
1391.24
1388.48
1385.68
1382.85
1379.97
1377.05
1374.08
1371.04
1367.96
1364.81
1361.6
1358.32
1354.98
1351.57
1348.1
1344.55
1340.94
1337.26
1333.5
1329.67
1325.77
1321.8
1317.75
1313.63
1309.43
1305.15
1300.8
1296.38
1291.87
1287.3
1282.64
1277.92
1273.11
1268.23
1263.27
1258.24
1253.12
1247.92
1242.65
1237.29
1231.85
1226.33
1220.71
1215
1209.19
1203.28
1197.23
1191.03
1184.66
1178.17
1171.53
1164.75
1157.88
1150.95
1143.98
1136.98
1129.95
1122.92
1115.86
1108.79
1101.7
1094.56
1087.38
1080.15
1072.86
1065.51
1058.1
1050.63
1043.1
1035.51
1027.85
1020.12
1012.31
1004.43
996.445
988.364
980.173
971.858
963.408
954.812
946.069
937.215
928.366
919.318
910.46
902.255
894.173
885.948
877.657
869.274
860.665
852.11
843.07
833.746
824.924
816.331
807.79
799.263
790.739
782.215
773.682
765.136
756.57
747.983
739.374
730.742
722.086
713.407
704.703
695.973
687.213
678.423
669.598
660.737
651.837
642.893
633.902
624.858
615.755
606.587
597.345
588.02
578.598
569.067
559.408
549.602
539.622
529.554
519.628
509.966
500.559
491.401
482.488
473.828
465.443
457.381
449.746
442.819
1445.43
1445.45
1445.44
1445.42
1445.37
1445.27
1445.12
1444.91
1444.62
1444.26
1443.81
1443.27
1442.63
1441.9
1441.06
1440.12
1439.09
1437.98
1436.8
1435.56
1434.28
1432.96
1431.59
1430.18
1428.71
1427.19
1425.62
1423.98
1422.29
1420.55
1418.76
1416.94
1415.08
1413.15
1411.14
1409.13
1406.94
1404.63
1402.28
1399.71
1397.06
1394.35
1391.6
1388.83
1386.02
1383.17
1380.27
1377.33
1374.34
1371.3
1368.19
1365.03
1361.81
1358.52
1355.17
1351.75
1348.27
1344.71
1341.09
1337.4
1333.63
1329.8
1325.89
1321.91
1317.86
1313.73
1309.52
1305.24
1300.88
1296.45
1291.95
1287.37
1282.71
1277.97
1273.17
1268.28
1263.32
1258.28
1253.16
1247.96
1242.68
1237.32
1231.88
1226.35
1220.73
1215.02
1209.21
1203.29
1197.25
1191.04
1184.65
1178.13
1171.47
1164.68
1157.8
1150.89
1143.93
1136.95
1129.93
1122.89
1115.84
1108.76
1101.65
1094.5
1087.31
1080.06
1072.76
1065.4
1057.99
1050.51
1042.97
1035.37
1027.7
1019.96
1012.14
1004.24
996.25
988.161
979.964
971.646
963.198
954.611
945.89
937.05
928.205
919.187
910.419
902.212
894.063
885.806
877.504
869.114
860.516
852.01
842.968
833.679
824.917
816.325
807.801
799.283
790.763
782.24
773.707
765.16
756.593
748.005
739.393
730.758
722.099
713.417
704.709
695.974
687.209
678.413
669.582
660.715
651.807
642.856
633.856
624.805
615.694
606.518
597.269
587.936
578.509
568.974
559.315
549.517
539.581
529.587
519.704
510.048
500.637
491.469
482.542
473.864
465.453
457.349
449.63
442.471
1446.08
1446.09
1446.08
1446.05
1446
1445.91
1445.78
1445.58
1445.3
1444.94
1444.49
1443.95
1443.32
1442.59
1441.77
1440.85
1439.85
1438.77
1437.61
1436.4
1435.13
1433.81
1432.44
1431.01
1429.53
1428
1426.41
1424.77
1423.08
1421.33
1419.53
1417.68
1415.79
1413.83
1411.8
1409.7
1407.52
1405.22
1402.83
1400.33
1397.72
1395.03
1392.29
1389.51
1386.68
1383.81
1380.89
1377.92
1374.91
1371.84
1368.71
1365.52
1362.27
1358.97
1355.59
1352.15
1348.65
1345.08
1341.43
1337.72
1333.94
1330.09
1326.17
1322.17
1318.1
1313.96
1309.75
1305.46
1301.09
1296.65
1292.13
1287.54
1282.88
1278.13
1273.32
1268.42
1263.45
1258.4
1253.27
1248.06
1242.77
1237.39
1231.93
1226.38
1220.74
1215
1209.16
1203.21
1197.13
1190.9
1184.53
1178.01
1171.36
1164.59
1157.74
1150.84
1143.89
1136.91
1129.89
1122.85
1115.79
1108.7
1101.58
1094.41
1087.2
1079.94
1072.62
1065.24
1057.81
1050.32
1042.76
1035.14
1027.45
1019.7
1011.86
1003.95
995.941
987.84
979.635
971.315
962.874
954.305
945.618
936.834
928.018
919.173
910.483
902.115
893.888
885.618
877.287
868.882
860.317
851.681
842.813
833.776
824.949
816.328
807.8
799.29
790.78
782.262
773.733
765.187
756.62
748.032
739.419
730.783
722.122
713.436
704.724
695.984
687.213
678.409
669.57
660.694
651.776
642.814
633.804
624.741
615.618
606.43
597.169
587.827
578.391
568.851
559.192
549.412
539.525
529.601
519.764
510.12
500.704
491.521
482.571
473.859
465.4
457.218
449.354
441.877
1447.14
1447.15
1447.12
1447.08
1447.02
1446.94
1446.8
1446.6
1446.33
1445.98
1445.54
1445.01
1444.38
1443.66
1442.85
1441.96
1440.97
1439.91
1438.78
1437.58
1436.32
1435
1433.62
1432.18
1430.69
1429.15
1427.55
1425.89
1424.18
1422.41
1420.59
1418.72
1416.79
1414.79
1412.72
1410.58
1408.36
1406.05
1403.65
1401.16
1398.58
1395.91
1393.19
1390.4
1387.56
1384.67
1381.73
1378.73
1375.69
1372.59
1369.43
1366.22
1362.94
1359.6
1356.2
1352.74
1349.21
1345.61
1341.95
1338.21
1334.41
1330.54
1326.59
1322.58
1318.49
1314.33
1310.1
1305.79
1301.41
1296.95
1292.42
1287.82
1283.14
1278.38
1273.55
1268.65
1263.66
1258.6
1253.45
1248.22
1242.9
1237.51
1232.02
1226.45
1220.78
1215.01
1209.13
1203.14
1197.02
1190.77
1184.38
1177.86
1171.22
1164.47
1157.64
1150.75
1143.82
1136.84
1129.83
1122.79
1115.72
1108.62
1101.48
1094.29
1087.06
1079.78
1072.44
1065.05
1057.6
1050.09
1042.51
1034.87
1027.16
1019.38
1011.53
1003.59
995.573
987.46
979.247
970.928
962.497
953.953
945.309
936.591
927.847
919.116
910.483
902.039
893.727
885.418
877.054
868.628
860.076
851.411
842.658
833.798
824.997
816.362
807.828
799.324
790.821
782.31
773.784
765.239
756.672
748.083
739.468
730.83
722.166
713.476
704.759
696.012
687.234
678.421
669.572
660.684
651.755
642.779
633.755
624.677
615.541
606.339
597.064
587.71
578.265
568.721
559.069
549.314
539.479
529.619
519.829
510.202
500.782
491.578
482.593
473.831
465.3
457.007
448.956
441.145
1448.65
1448.65
1448.61
1448.56
1448.49
1448.39
1448.25
1448.04
1447.77
1447.41
1446.97
1446.44
1445.81
1445.1
1444.3
1443.41
1442.44
1441.39
1440.27
1439.07
1437.81
1436.48
1435.09
1433.65
1432.14
1430.58
1428.96
1427.28
1425.55
1423.76
1421.91
1420.01
1418.04
1416
1413.89
1411.72
1409.46
1407.13
1404.71
1402.22
1399.64
1396.98
1394.26
1391.47
1388.62
1385.71
1382.75
1379.73
1376.65
1373.52
1370.34
1367.09
1363.78
1360.41
1356.98
1353.49
1349.93
1346.3
1342.61
1338.84
1335.01
1331.11
1327.14
1323.1
1318.99
1314.81
1310.55
1306.22
1301.82
1297.35
1292.8
1288.17
1283.48
1278.7
1273.86
1268.93
1263.92
1258.83
1253.66
1248.41
1243.07
1237.65
1232.14
1226.53
1220.83
1215.03
1209.12
1203.1
1196.95
1190.67
1184.27
1177.74
1171.11
1164.37
1157.56
1150.68
1143.75
1136.78
1129.77
1122.73
1115.65
1108.53
1101.37
1094.17
1086.91
1079.61
1072.25
1064.84
1057.36
1049.83
1042.23
1034.57
1026.84
1019.04
1011.17
1003.21
995.177
987.054
978.836
970.521
962.106
953.594
944.999
936.347
927.679
919.034
910.446
901.967
893.591
885.236
876.843
868.398
859.852
851.209
842.535
833.799
825.06
816.43
807.89
799.388
790.892
782.387
773.863
765.318
756.752
748.161
739.545
730.903
722.235
713.541
704.818
696.064
687.276
678.454
669.593
660.693
651.749
642.759
633.719
624.626
615.473
606.255
596.967
587.601
578.148
568.603
558.962
549.237
539.45
529.645
519.899
510.291
500.864
491.634
482.605
473.78
465.159
456.733
448.478
440.352
1450.67
1450.67
1450.62
1450.55
1450.46
1450.33
1450.17
1449.94
1449.64
1449.27
1448.81
1448.27
1447.64
1446.92
1446.11
1445.22
1444.25
1443.19
1442.06
1440.86
1439.59
1438.25
1436.85
1435.39
1433.86
1432.28
1430.64
1428.94
1427.18
1425.36
1423.48
1421.53
1419.53
1417.46
1415.31
1413.1
1410.82
1408.45
1406.02
1403.5
1400.91
1398.25
1395.52
1392.72
1389.85
1386.93
1383.94
1380.89
1377.79
1374.63
1371.41
1368.13
1364.79
1361.38
1357.92
1354.39
1350.79
1347.13
1343.41
1339.61
1335.75
1331.82
1327.82
1323.75
1319.61
1315.4
1311.12
1306.76
1302.33
1297.83
1293.26
1288.61
1283.89
1279.09
1274.22
1269.27
1264.24
1259.13
1253.93
1248.65
1243.29
1237.83
1232.29
1226.65
1220.92
1215.09
1209.14
1203.09
1196.91
1190.62
1184.2
1177.68
1171.04
1164.31
1157.51
1150.64
1143.71
1136.74
1129.73
1122.68
1115.58
1108.45
1101.26
1094.04
1086.76
1079.43
1072.05
1064.61
1057.12
1049.56
1041.94
1034.26
1026.51
1018.69
1010.79
1002.82
994.777
986.646
978.429
970.123
961.729
953.252
944.706
936.117
927.516
918.932
910.382
901.895
893.48
885.088
876.672
868.213
859.679
851.075
842.459
833.807
825.134
816.524
807.986
799.486
790.996
782.494
773.972
765.429
756.862
748.27
739.651
731.005
722.332
713.632
704.903
696.141
687.344
678.511
669.638
660.724
651.765
642.759
633.703
624.593
615.424
606.191
596.888
587.511
578.052
568.508
558.882
549.186
539.44
529.681
519.973
510.381
500.947
491.687
482.608
473.709
464.985
456.414
447.955
439.55
1453.25
1453.24
1453.17
1453.07
1452.94
1452.79
1452.58
1452.32
1451.99
1451.59
1451.1
1450.53
1449.87
1449.13
1448.3
1447.39
1446.4
1445.33
1444.18
1442.96
1441.67
1440.31
1438.89
1437.4
1435.85
1434.24
1432.57
1430.84
1429.05
1427.2
1425.28
1423.3
1421.26
1419.15
1416.97
1414.72
1412.4
1410.01
1407.55
1405.01
1402.4
1399.72
1396.97
1394.15
1391.26
1388.31
1385.3
1382.23
1379.1
1375.9
1372.65
1369.33
1365.95
1362.51
1359.01
1355.44
1351.81
1348.11
1344.35
1340.52
1336.63
1332.66
1328.63
1324.52
1320.35
1316.11
1311.8
1307.41
1302.95
1298.43
1293.82
1289.15
1284.4
1279.58
1274.68
1269.7
1264.64
1259.5
1254.27
1248.96
1243.57
1238.09
1232.51
1226.84
1221.07
1215.21
1209.23
1203.15
1196.95
1190.64
1184.21
1177.67
1171.04
1164.31
1157.51
1150.64
1143.71
1136.74
1129.71
1122.65
1115.53
1108.38
1101.18
1093.93
1086.62
1079.27
1071.86
1064.4
1056.88
1049.3
1041.66
1033.95
1026.18
1018.34
1010.43
1002.45
994.395
986.261
978.048
969.755
961.385
952.943
944.445
935.912
927.366
918.829
910.311
901.831
893.397
884.981
876.549
868.084
859.567
851.004
842.432
833.838
825.223
816.643
808.114
799.62
791.134
782.635
774.114
765.571
757.004
748.411
739.789
731.138
722.459
713.751
705.015
696.246
687.44
678.595
669.709
660.781
651.807
642.785
633.712
624.585
615.399
606.151
596.835
587.448
577.984
568.444
558.835
549.164
539.451
529.73
520.053
510.474
501.029
491.736
482.601
473.623
464.788
456.069
447.414
438.766
1456.45
1456.41
1456.29
1456.14
1455.96
1455.76
1455.5
1455.19
1454.81
1454.36
1453.83
1453.22
1452.52
1451.74
1450.88
1449.94
1448.91
1447.81
1446.63
1445.38
1444.06
1442.67
1441.22
1439.7
1438.11
1436.47
1434.76
1433
1431.17
1429.28
1427.32
1425.31
1423.22
1421.07
1418.86
1416.57
1414.22
1411.79
1409.3
1406.73
1404.09
1401.39
1398.61
1395.76
1392.85
1389.87
1386.83
1383.73
1380.56
1377.33
1374.04
1370.69
1367.27
1363.8
1360.26
1356.65
1352.98
1349.24
1345.44
1341.58
1337.64
1333.64
1329.57
1325.43
1321.23
1316.95
1312.6
1308.19
1303.7
1299.14
1294.5
1289.8
1285.02
1280.17
1275.24
1270.23
1265.14
1259.97
1254.72
1249.38
1243.95
1238.44
1232.83
1227.13
1221.33
1215.43
1209.42
1203.31
1197.08
1190.75
1184.3
1177.76
1171.12
1164.39
1157.58
1150.7
1143.77
1136.78
1129.74
1122.66
1115.53
1108.35
1101.12
1093.85
1086.52
1079.14
1071.71
1064.22
1056.67
1049.07
1041.4
1033.67
1025.88
1018.03
1010.11
1002.11
994.052
985.918
977.711
969.434
961.087
952.681
944.226
935.739
927.24
918.741
910.253
901.786
893.347
884.918
876.479
868.017
859.518
850.99
842.454
833.903
825.337
816.788
808.273
799.788
791.308
782.81
774.291
765.749
757.181
748.585
739.96
731.304
722.618
713.902
705.158
696.381
687.565
678.708
669.81
660.867
651.877
642.839
633.749
624.606
615.404
606.141
596.813
587.416
577.95
568.416
558.821
549.171
539.484
529.793
520.141
510.57
501.111
491.783
482.59
473.527
464.58
455.714
446.877
438.016
1460.24
1460.15
1459.97
1459.76
1459.52
1459.25
1458.93
1458.56
1458.12
1457.61
1457.02
1456.36
1455.61
1454.77
1453.86
1452.87
1451.8
1450.65
1449.42
1448.13
1446.77
1445.33
1443.84
1442.28
1440.65
1438.97
1437.22
1435.41
1433.53
1431.6
1429.6
1427.54
1425.42
1423.22
1420.97
1418.64
1416.25
1413.79
1411.25
1408.65
1405.98
1403.24
1400.44
1397.56
1394.62
1391.61
1388.53
1385.39
1382.19
1378.93
1375.6
1372.21
1368.75
1365.24
1361.65
1358.01
1354.3
1350.52
1346.68
1342.78
1338.8
1334.77
1330.66
1326.48
1322.24
1317.93
1313.55
1309.1
1304.57
1299.98
1295.32
1290.58
1285.77
1280.89
1275.93
1270.89
1265.77
1260.57
1255.29
1249.92
1244.46
1238.91
1233.27
1227.54
1221.7
1215.77
1209.73
1203.59
1197.34
1190.98
1184.52
1177.96
1171.3
1164.56
1157.74
1150.85
1143.9
1136.9
1129.84
1122.73
1115.58
1108.37
1101.12
1093.82
1086.47
1079.06
1071.6
1064.08
1056.51
1048.88
1041.19
1033.44
1025.64
1017.76
1009.83
1001.83
993.762
985.63
977.432
969.17
960.847
952.472
944.055
935.609
927.148
918.683
910.221
901.77
893.334
884.904
876.465
868.01
859.531
851.033
842.526
834.009
825.482
816.962
808.466
799.992
791.517
783.021
774.503
765.962
757.392
748.794
740.165
731.504
722.81
714.085
705.331
696.546
687.721
678.853
669.941
660.984
651.979
642.924
633.818
624.658
615.44
606.163
596.824
587.42
577.953
568.425
558.84
549.206
539.542
529.875
520.24
510.672
501.197
491.831
482.577
473.43
464.371
455.364
446.357
437.31
1464.55
1464.42
1464.18
1463.91
1463.6
1463.25
1462.87
1462.42
1461.91
1461.33
1460.68
1459.94
1459.12
1458.23
1457.25
1456.19
1455.06
1453.85
1452.57
1451.22
1449.8
1448.31
1446.76
1445.15
1443.47
1441.73
1439.93
1438.07
1436.15
1434.17
1432.12
1430.01
1427.84
1425.6
1423.3
1420.93
1418.49
1415.99
1413.41
1410.77
1408.07
1405.29
1402.44
1399.53
1396.55
1393.51
1390.4
1387.22
1383.98
1380.68
1377.31
1373.88
1370.39
1366.83
1363.21
1359.52
1355.77
1351.95
1348.07
1344.13
1340.12
1336.04
1331.89
1327.68
1323.4
1319.05
1314.63
1310.15
1305.59
1300.97
1296.27
1291.5
1286.66
1281.75
1276.76
1271.69
1266.55
1261.32
1256
1250.6
1245.11
1239.53
1233.86
1228.09
1222.23
1216.26
1210.19
1204.01
1197.74
1191.35
1184.87
1178.28
1171.61
1164.85
1158.01
1151.1
1144.13
1137.1
1130.02
1122.89
1115.71
1108.48
1101.2
1093.86
1086.48
1079.04
1071.55
1064.01
1056.41
1048.76
1041.05
1033.28
1025.45
1017.56
1009.62
1001.61
993.538
985.408
977.219
968.971
960.671
952.324
943.939
935.527
927.099
918.663
910.226
901.792
893.365
884.939
876.507
868.063
859.603
851.13
842.65
834.162
825.665
817.171
808.694
800.232
791.762
783.269
774.753
766.212
757.641
749.04
740.406
731.739
723.038
714.303
705.538
696.743
687.91
679.031
670.106
661.134
652.113
643.043
633.92
624.744
615.512
606.221
596.872
587.463
577.995
568.47
558.892
549.271
539.624
529.975
520.353
510.783
501.29
491.885
482.57
473.338
464.17
455.028
445.866
436.654
1469.35
1469.18
1468.89
1468.56
1468.18
1467.76
1467.3
1466.78
1466.19
1465.53
1464.8
1463.98
1463.09
1462.11
1461.06
1459.93
1458.72
1457.44
1456.08
1454.66
1453.17
1451.62
1450
1448.32
1446.58
1444.78
1442.92
1441
1439.02
1436.98
1434.88
1432.71
1430.48
1428.19
1425.84
1423.42
1420.94
1418.39
1415.77
1413.09
1410.33
1407.52
1404.63
1401.68
1398.66
1395.58
1392.43
1389.21
1385.93
1382.59
1379.18
1375.71
1372.17
1368.57
1364.91
1361.18
1357.39
1353.53
1349.61
1345.63
1341.57
1337.46
1333.27
1329.02
1324.71
1320.32
1315.87
1311.35
1306.76
1302.1
1297.37
1292.57
1287.7
1282.75
1277.74
1272.64
1267.47
1262.21
1256.87
1251.44
1245.92
1240.31
1234.6
1228.8
1222.91
1216.91
1210.81
1204.6
1198.29
1191.88
1185.37
1178.76
1172.06
1165.27
1158.41
1151.48
1144.48
1137.42
1130.31
1123.15
1115.94
1108.67
1101.36
1094
1086.58
1079.11
1071.59
1064.02
1056.39
1048.71
1040.98
1033.19
1025.34
1017.44
1009.48
1001.46
993.389
985.261
977.079
968.845
960.563
952.24
943.883
935.5
927.1
918.69
910.275
901.859
893.444
885.028
876.607
868.177
859.736
851.284
842.826
834.361
825.889
817.418
808.958
800.509
792.045
783.554
775.04
766.498
757.926
749.321
740.683
732.01
723.302
714.557
705.78
696.974
688.132
679.243
670.305
661.319
652.283
643.197
634.058
624.867
615.62
606.317
596.959
587.544
578.073
568.549
558.977
549.366
539.733
530.098
520.482
510.908
501.393
491.948
482.573
473.259
463.985
454.717
445.412
436.05
1474.65
1474.44
1474.1
1473.71
1473.27
1472.78
1472.23
1471.63
1470.96
1470.21
1469.39
1468.48
1467.5
1466.43
1465.29
1464.07
1462.77
1461.4
1459.96
1458.46
1456.89
1455.25
1453.56
1451.8
1449.98
1448.11
1446.18
1444.19
1442.14
1440.03
1437.87
1435.64
1433.35
1431.01
1428.59
1426.12
1423.58
1420.98
1418.31
1415.58
1412.78
1409.92
1406.99
1403.99
1400.93
1397.81
1394.61
1391.36
1388.03
1384.65
1381.2
1377.68
1374.11
1370.47
1366.76
1362.99
1359.16
1355.26
1351.3
1347.27
1343.18
1339.02
1334.8
1330.51
1326.16
1321.74
1317.25
1312.7
1308.07
1303.38
1298.62
1293.79
1288.89
1283.91
1278.87
1273.75
1268.55
1263.26
1257.89
1252.44
1246.89
1241.25
1235.52
1229.69
1223.76
1217.73
1211.6
1205.36
1199.02
1192.58
1186.03
1179.4
1172.67
1165.85
1158.96
1151.99
1144.97
1137.88
1130.73
1123.53
1116.28
1108.98
1101.63
1094.23
1086.78
1079.28
1071.73
1064.12
1056.47
1048.76
1041
1033.18
1025.32
1017.4
1009.42
1001.4
993.323
985.195
977.018
968.795
960.528
952.225
943.89
935.532
927.156
918.768
910.374
901.976
893.576
885.174
876.767
868.351
859.925
851.492
843.053
834.607
826.156
817.705
809.263
800.826
792.369
783.881
775.367
766.825
758.25
749.641
740.998
732.319
723.602
714.848
706.059
697.241
688.39
679.491
670.541
661.541
652.49
643.388
634.235
625.029
615.769
606.454
597.085
587.663
578.188
568.664
559.095
549.493
539.871
530.244
520.631
511.049
501.512
492.027
482.592
473.198
463.823
454.436
445
435.502
1480.46
1480.21
1479.83
1479.38
1478.87
1478.31
1477.68
1476.99
1476.23
1475.38
1474.46
1473.45
1472.37
1471.2
1469.95
1468.63
1467.23
1465.76
1464.22
1462.62
1460.95
1459.22
1457.43
1455.59
1453.68
1451.72
1449.71
1447.64
1445.51
1443.33
1441.09
1438.8
1436.44
1434.03
1431.55
1429.02
1426.42
1423.77
1421.04
1418.26
1415.41
1412.5
1409.52
1406.48
1403.37
1400.19
1396.96
1393.66
1390.29
1386.86
1383.37
1379.81
1376.19
1372.51
1368.76
1364.95
1361.07
1357.13
1353.13
1349.06
1344.93
1340.74
1336.48
1332.15
1327.76
1323.3
1318.78
1314.19
1309.54
1304.82
1300.02
1295.16
1290.23
1285.23
1280.16
1275.01
1269.79
1264.48
1259.08
1253.6
1248.03
1242.37
1236.61
1230.75
1224.79
1218.73
1212.57
1206.3
1199.93
1193.46
1186.88
1180.21
1173.45
1166.6
1159.67
1152.67
1145.6
1138.48
1131.29
1124.05
1116.76
1109.42
1102.03
1094.59
1087.1
1079.56
1071.97
1064.33
1056.65
1048.91
1041.12
1033.28
1025.39
1017.45
1009.47
1001.43
993.346
985.216
977.041
968.825
960.57
952.282
943.966
935.627
927.271
918.903
910.528
902.148
893.766
885.378
876.983
868.58
860.169
851.75
843.326
834.898
826.466
818.033
809.608
801.184
792.736
784.252
775.739
767.195
758.617
750.004
741.354
732.668
723.943
715.179
706.377
697.546
688.683
679.776
670.814
661.801
652.736
643.619
634.451
625.23
615.956
606.629
597.25
587.82
578.339
568.813
559.248
549.653
540.037
530.416
520.803
511.211
501.65
492.125
482.632
473.161
463.692
454.194
444.635
435.012
1486.82
1486.54
1486.11
1485.6
1485.03
1484.39
1483.67
1482.89
1482.02
1481.07
1480.04
1478.92
1477.71
1476.43
1475.07
1473.62
1472.11
1470.52
1468.87
1467.15
1465.37
1463.54
1461.64
1459.69
1457.69
1455.63
1453.52
1451.35
1449.14
1446.87
1444.55
1442.17
1439.74
1437.25
1434.71
1432.11
1429.45
1426.73
1423.95
1421.11
1418.2
1415.24
1412.21
1409.12
1405.96
1402.74
1399.46
1396.11
1392.7
1389.22
1385.69
1382.09
1378.42
1374.7
1370.91
1367.05
1363.14
1359.16
1355.11
1351.01
1346.83
1342.6
1338.3
1333.94
1329.51
1325.02
1320.46
1315.84
1311.16
1306.4
1301.58
1296.69
1291.74
1286.71
1281.61
1276.44
1271.19
1265.86
1260.45
1254.95
1249.35
1243.67
1237.88
1232
1226.02
1219.93
1213.74
1207.44
1201.04
1194.53
1187.92
1181.22
1174.42
1167.53
1160.56
1153.52
1146.41
1139.24
1132.01
1124.73
1117.39
1110.01
1102.57
1095.09
1087.56
1079.97
1072.35
1064.67
1056.94
1049.17
1041.35
1033.49
1025.57
1017.61
1009.61
1001.56
993.465
985.329
977.153
968.939
960.692
952.414
944.111
935.788
927.449
919.098
910.741
902.38
894.012
885.636
877.252
868.859
860.459
852.055
843.647
835.236
826.821
818.405
809.995
801.585
793.145
784.667
776.156
767.612
759.032
750.414
741.758
733.062
724.327
715.552
706.738
697.891
689.017
680.1
671.127
662.1
653.021
643.889
634.706
625.47
616.183
606.843
597.452
588.013
578.527
569
559.437
549.845
540.234
530.616
520.999
511.396
501.811
492.247
482.699
473.155
463.596
453.993
444.321
434.58
1493.78
1493.47
1493.01
1492.44
1491.78
1491.05
1490.24
1489.34
1488.36
1487.28
1486.12
1484.87
1483.54
1482.12
1480.62
1479.05
1477.4
1475.68
1473.89
1472.05
1470.14
1468.17
1466.15
1464.08
1461.96
1459.79
1457.58
1455.31
1453
1450.64
1448.22
1445.76
1443.24
1440.67
1438.05
1435.38
1432.64
1429.86
1427.01
1424.1
1421.14
1418.12
1415.03
1411.89
1408.68
1405.42
1402.09
1398.69
1395.24
1391.72
1388.14
1384.49
1380.79
1377.02
1373.19
1369.3
1365.34
1361.32
1357.23
1353.09
1348.88
1344.6
1340.27
1335.87
1331.41
1326.88
1322.29
1317.64
1312.92
1308.14
1303.29
1298.37
1293.39
1288.33
1283.21
1278.02
1272.75
1267.4
1261.97
1256.45
1250.84
1245.13
1239.33
1233.42
1227.42
1221.31
1215.09
1208.76
1202.33
1195.79
1189.15
1182.41
1175.57
1168.65
1161.64
1154.55
1147.4
1140.18
1132.9
1125.57
1118.19
1110.75
1103.27
1095.74
1088.16
1080.54
1072.87
1065.15
1057.39
1049.58
1041.72
1033.83
1025.89
1017.9
1009.88
1001.81
993.699
985.553
977.37
969.155
960.909
952.637
944.342
936.03
927.703
919.367
911.026
902.677
894.319
885.951
877.573
869.19
860.802
852.412
844.018
835.622
827.223
818.822
810.427
802.029
793.6
785.128
776.62
768.076
759.493
750.872
742.21
733.506
724.761
715.975
707.149
698.287
689.397
680.47
671.487
662.447
653.353
644.207
635.007
625.756
616.454
607.1
597.699
588.251
578.76
569.23
559.666
550.077
540.468
530.849
521.227
511.61
502.001
492.399
482.798
473.186
463.542
453.841
444.061
434.208
1501.68
1501.3
1500.72
1500.04
1499.25
1498.39
1497.44
1496.4
1495.27
1494.05
1492.74
1491.33
1489.84
1488.27
1486.61
1484.88
1483.08
1481.21
1479.28
1477.29
1475.25
1473.14
1470.99
1468.79
1466.55
1464.26
1461.92
1459.54
1457.12
1454.65
1452.14
1449.58
1446.98
1444.32
1441.62
1438.86
1436.05
1433.19
1430.27
1427.3
1424.27
1421.18
1418.04
1414.83
1411.57
1408.25
1404.87
1401.42
1397.92
1394.35
1390.73
1387.04
1383.29
1379.48
1375.61
1371.68
1367.68
1363.63
1359.5
1355.32
1351.07
1346.76
1342.39
1337.95
1333.46
1328.9
1324.28
1319.59
1314.84
1310.03
1305.15
1300.21
1295.2
1290.13
1284.98
1279.76
1274.48
1269.11
1263.66
1258.12
1252.49
1246.77
1240.95
1235.02
1229
1222.86
1216.62
1210.27
1203.81
1197.24
1190.56
1183.79
1176.91
1169.95
1162.9
1155.77
1148.57
1141.31
1133.98
1126.6
1119.17
1111.69
1104.15
1096.57
1088.95
1081.28
1073.56
1065.8
1058
1050.15
1042.26
1034.33
1026.35
1018.34
1010.29
1002.2
994.068
985.906
977.711
969.486
961.236
952.962
944.669
936.362
928.045
919.718
911.383
903.039
894.685
886.321
877.952
869.578
861.201
852.822
844.442
836.06
827.675
819.288
810.906
802.522
794.104
785.638
777.134
768.591
760.007
751.382
742.715
734.004
725.249
716.452
707.614
698.737
689.83
680.89
671.897
662.844
653.735
644.573
635.357
626.091
616.773
607.406
597.993
588.535
579.037
569.503
559.938
550.348
540.739
531.117
521.489
511.858
502.225
492.586
482.935
473.257
463.534
453.741
443.859
433.899
1510.19
1509.7
1508.98
1508.14
1507.2
1506.17
1505.06
1503.86
1502.56
1501.17
1499.68
1498.11
1496.45
1494.71
1492.88
1490.99
1489.02
1486.99
1484.9
1482.76
1480.56
1478.32
1476.02
1473.69
1471.31
1468.9
1466.44
1463.95
1461.41
1458.83
1456.22
1453.56
1450.86
1448.11
1445.32
1442.48
1439.59
1436.65
1433.66
1430.62
1427.53
1424.38
1421.17
1417.91
1414.58
1411.21
1407.77
1404.28
1400.72
1397.11
1393.43
1389.7
1385.91
1382.05
1378.14
1374.16
1370.13
1366.03
1361.86
1357.64
1353.36
1349.01
1344.6
1340.13
1335.6
1331.01
1326.36
1321.64
1316.86
1312.02
1307.12
1302.15
1297.12
1292.02
1286.85
1281.62
1276.31
1270.93
1265.46
1259.91
1254.27
1248.53
1242.69
1236.75
1230.71
1224.55
1218.29
1211.92
1205.43
1198.84
1192.13
1185.32
1178.41
1171.41
1164.31
1157.14
1149.89
1142.58
1135.21
1127.78
1120.29
1112.76
1105.18
1097.55
1089.87
1082.15
1074.39
1066.58
1058.74
1050.85
1042.92
1034.95
1026.94
1018.89
1010.8
1002.68
994.531
986.347
978.135
969.896
961.635
953.356
945.063
936.758
928.441
920.116
911.783
903.44
895.089
886.731
878.369
870.005
861.638
853.271
844.903
836.534
828.163
819.789
811.419
803.049
794.643
786.186
777.686
769.145
760.562
751.934
743.262
734.544
725.781
716.973
708.122
699.23
690.306
681.352
672.349
663.283
654.159
644.981
635.749
626.466
617.133
607.753
598.327
588.859
579.353
569.813
560.245
550.652
541.041
531.416
521.78
512.135
502.478
492.805
483.107
473.369
463.571
453.692
443.713
433.648
1518.46
1517.91
1517.08
1516.1
1515.03
1513.86
1512.59
1511.23
1509.77
1508.21
1506.56
1504.81
1502.98
1501.07
1499.08
1497.02
1494.89
1492.7
1490.45
1488.15
1485.8
1483.41
1480.98
1478.51
1476
1473.46
1470.88
1468.27
1465.62
1462.94
1460.22
1457.46
1454.66
1451.82
1448.95
1446.02
1443.06
1440.04
1436.98
1433.87
1430.71
1427.5
1424.23
1420.91
1417.53
1414.1
1410.61
1407.07
1403.46
1399.8
1396.08
1392.31
1388.47
1384.57
1380.62
1376.6
1372.52
1368.38
1364.18
1359.92
1355.6
1351.21
1346.77
1342.27
1337.7
1333.08
1328.39
1323.64
1318.84
1313.97
1309.04
1304.05
1298.99
1293.87
1288.68
1283.43
1278.1
1272.7
1267.22
1261.66
1256.01
1250.26
1244.41
1238.46
1232.41
1226.24
1219.96
1213.57
1207.07
1200.45
1193.71
1186.87
1179.93
1172.89
1165.75
1158.53
1151.24
1143.88
1136.46
1128.98
1121.44
1113.85
1106.22
1098.54
1090.81
1083.04
1075.23
1067.38
1059.49
1051.55
1043.58
1035.57
1027.53
1019.44
1011.33
1003.18
994.998