/*--------------------------------*- C++ -*----------------------------------*\
  =========                 |
  \\      /  F ield         | OpenFOAM: The Open Source CFD Toolbox
   \\    /   O peration     | Website:  https://openfoam.org
    \\  /    A nd           | Version:  9
     \\/     M anipulation  |
\*---------------------------------------------------------------------------*/
FoamFile
{
    format      ascii;
    class       surfaceScalarField;
    location    "0.2";
    object      phi;
}
// * * * * * * * * * * * * * * * * * * * * * * * * * * * * * * * * * * * * * //

dimensions      [0 3 -1 0 0 0 0];

internalField   nonuniform List<scalar> 
24170
(
3.38848e-06
-2.00072e-07
3.85779e-06
-4.69316e-07
4.05396e-06
-1.9617e-07
4.15233e-06
-9.83616e-08
4.20976e-06
-5.743e-08
4.26519e-06
-5.54345e-08
4.33375e-06
-6.85542e-08
4.42227e-06
-8.85271e-08
4.53545e-06
-1.13177e-07
4.67761e-06
-1.42161e-07
4.85413e-06
-1.76515e-07
5.07307e-06
-2.18945e-07
5.34785e-06
-2.74773e-07
5.70248e-06
-3.54631e-07
6.18454e-06
-4.82063e-07
6.90336e-06
-7.18817e-07
8.17176e-06
-1.2684e-06
-3.64395e-06
1.18157e-05
3.80238e-06
-5.85203e-07
4.18481e-06
-8.51746e-07
4.38159e-06
-3.92949e-07
4.507e-06
-2.23772e-07
4.60292e-06
-1.53354e-07
4.6951e-06
-1.47608e-07
4.79927e-06
-1.72723e-07
4.92373e-06
-2.12992e-07
5.07339e-06
-2.62836e-07
5.25253e-06
-3.21295e-07
5.46654e-06
-3.90527e-07
5.7235e-06
-4.7591e-07
6.03642e-06
-5.87691e-07
6.42748e-06
-7.45694e-07
6.93748e-06
-9.92056e-07
7.6454e-06
-1.42674e-06
8.71516e-06
-2.33816e-06
-4.62146e-06
9.69267e-06
3.74768e-06
-6.70368e-07
3.85846e-06
-9.62524e-07
3.9716e-06
-5.06093e-07
4.06399e-06
-3.16162e-07
4.15122e-06
-2.40576e-07
4.24254e-06
-2.38933e-07
4.34599e-06
-2.76171e-07
4.46691e-06
-3.33908e-07
4.60896e-06
-4.04887e-07
4.77561e-06
-4.87949e-07
4.97128e-06
-5.86193e-07
5.20236e-06
-7.06992e-07
5.47863e-06
-8.63963e-07
5.81523e-06
-1.08229e-06
6.23451e-06
-1.41133e-06
6.76194e-06
-1.95418e-06
7.35935e-06
-2.93556e-06
-4.7572e-06
7.49508e-06
3.78909e-06
-5.34069e-07
3.70207e-06
-8.75503e-07
3.73271e-06
-5.36737e-07
3.79039e-06
-3.73843e-07
3.86456e-06
-3.14741e-07
3.95129e-06
-3.25668e-07
4.0518e-06
-3.76683e-07
4.16838e-06
-4.50482e-07
4.3033e-06
-5.39815e-07
4.45915e-06
-6.43797e-07
4.63922e-06
-7.66264e-07
4.84802e-06
-9.15784e-07
5.09156e-06
-1.10751e-06
5.37705e-06
-1.36777e-06
5.7089e-06
-1.74319e-06
6.07201e-06
-2.31729e-06
6.3718e-06
-3.23535e-06
-4.6103e-06
6.22491e-06
3.9417e-06
-2.68643e-07
3.7289e-06
-6.62707e-07
3.69121e-06
-4.99039e-07
3.71734e-06
-3.99971e-07
3.77788e-06
-3.75282e-07
3.85903e-06
-4.06822e-07
3.95634e-06
-4.73996e-07
4.06924e-06
-5.6338e-07
4.19858e-06
-6.69151e-07
4.34592e-06
-7.9114e-07
4.51338e-06
-9.33723e-07
4.70347e-06
-1.10587e-06
4.9185e-06
-1.32255e-06
5.15853e-06
-1.6078e-06
5.41489e-06
-1.99955e-06
5.65319e-06
-2.55559e-06
5.77183e-06
-3.354e-06
-4.34839e-06
5.50992e-06
4.17685e-06
6.35992e-08
3.88455e-06
-3.70416e-07
3.78804e-06
-4.0252e-07
3.78183e-06
-3.93769e-07
3.82559e-06
-4.19043e-07
3.89843e-06
-4.79657e-07
3.99102e-06
-5.66584e-07
4.09984e-06
-6.72202e-07
4.22399e-06
-7.93303e-07
4.36374e-06
-9.30884e-07
4.51975e-06
-1.08974e-06
4.69243e-06
-1.27855e-06
4.8806e-06
-1.51072e-06
5.07861e-06
-1.8058e-06
5.26985e-06
-2.19079e-06
5.41391e-06
-2.69965e-06
5.42191e-06
-3.36199e-06
-4.04525e-06
5.11877e-06
4.47476e-06
4.21564e-07
4.13372e-06
-2.93813e-08
3.98679e-06
-2.55585e-07
3.94787e-06
-3.54858e-07
3.97192e-06
-4.43091e-07
4.03337e-06
-5.41108e-07
4.11894e-06
-6.52146e-07
4.22223e-06
-7.75498e-07
4.34038e-06
-9.11448e-07
4.47205e-06
-1.06256e-06
4.6163e-06
-1.23398e-06
4.77135e-06
-1.4336e-06
4.93297e-06
-1.67234e-06
5.09147e-06
-1.9643e-06
5.22646e-06
-2.32578e-06
5.2986e-06
-2.77178e-06
5.23676e-06
-3.30016e-06
-3.73905e-06
4.93056e-06
4.8243e-06
7.76841e-07
4.45671e-06
3.38209e-07
4.26758e-06
-6.64563e-08
4.19664e-06
-2.83909e-07
4.1988e-06
-4.45252e-07
4.24593e-06
-5.88245e-07
4.32174e-06
-7.27948e-07
4.41724e-06
-8.71e-07
4.52752e-06
-1.02173e-06
4.64952e-06
-1.18457e-06
4.78054e-06
-1.365e-06
4.91678e-06
-1.56983e-06
5.05156e-06
-1.80712e-06
5.17279e-06
-2.08553e-06
5.2593e-06
-2.41229e-06
5.27636e-06
-2.78884e-06
5.17093e-06
-3.19473e-06
-3.44726e-06
4.87914e-06
5.21901e-06
1.10917e-06
4.8418e-06
7.15415e-07
4.61877e-06
1.56575e-07
4.51761e-06
-1.8275e-07
4.49668e-06
-4.2432e-07
4.52701e-06
-6.18574e-07
4.59022e-06
-7.91156e-07
4.67515e-06
-9.55935e-07
4.77496e-06
-1.12153e-06
4.88485e-06
-1.29446e-06
5.00041e-06
-1.48056e-06
5.11609e-06
-1.68551e-06
5.22354e-06
-1.91458e-06
5.30969e-06
-2.17168e-06
5.35459e-06
-2.45719e-06
5.32974e-06
-2.76399e-06
5.19822e-06
-3.06321e-06
-3.17588e-06
4.92684e-06
5.63677e-06
1.42217e-06
5.25193e-06
1.10025e-06
5.00055e-06
4.07958e-07
4.87273e-06
-5.49307e-08
4.82959e-06
-3.81172e-07
4.84233e-06
-6.31318e-07
4.89127e-06
-8.40101e-07
4.96358e-06
-1.02824e-06
5.05074e-06
-1.20869e-06
5.14643e-06
-1.39014e-06
5.24477e-06
-1.57891e-06
5.33894e-06
-1.77967e-06
5.41972e-06
-1.99535e-06
5.47426e-06
-2.22623e-06
5.48514e-06
-2.46807e-06
5.43049e-06
-2.70934e-06
5.28602e-06
-2.91875e-06
-2.93142e-06
5.04156e-06
5.99257e-06
1.80641e-06
5.54965e-06
1.54318e-06
5.26532e-06
6.92288e-07
5.11613e-06
9.42619e-08
5.05585e-06
-3.20896e-07
5.05446e-06
-6.29922e-07
5.09102e-06
-8.76662e-07
5.15151e-06
-1.08874e-06
5.22629e-06
-1.28347e-06
5.30796e-06
-1.4718e-06
5.38974e-06
-1.66069e-06
5.4642e-06
-1.85414e-06
5.52222e-06
-2.05338e-06
5.55232e-06
-2.25632e-06
5.5406e-06
-2.45634e-06
5.47184e-06
-2.64059e-06
5.33281e-06
-2.77972e-06
-2.74066e-06
5.14206e-06
5.41513e-06
2.13211e-06
5.03272e-06
1.92559e-06
4.78967e-06
9.35345e-07
4.64441e-06
2.39518e-07
4.5748e-06
-2.51282e-07
4.55484e-06
-6.09965e-07
4.56665e-06
-8.88469e-07
4.59799e-06
-1.12009e-06
4.6402e-06
-1.32567e-06
4.68648e-06
-1.51808e-06
4.73071e-06
-1.70493e-06
4.76659e-06
-1.89001e-06
4.78702e-06
-2.07381e-06
4.78405e-06
-2.25335e-06
4.74936e-06
-2.42166e-06
4.67651e-06
-2.56774e-06
4.56633e-06
-2.66953e-06
-2.56453e-06
4.3902e-06
6.72202e-06
2.40825e-06
6.32676e-06
2.32085e-06
6.05962e-06
1.20248e-06
5.90319e-06
3.9595e-07
5.82148e-06
-1.69577e-07
5.79007e-06
-5.78557e-07
5.79127e-06
-8.89662e-07
5.81237e-06
-1.14119e-06
5.84389e-06
-1.35719e-06
5.87809e-06
-1.55229e-06
5.90797e-06
-1.7348e-06
5.92651e-06
-1.90855e-06
5.92638e-06
-2.07368e-06
5.90012e-06
-2.2271e-06
5.84096e-06
-2.3625e-06
5.74487e-06
-2.47164e-06
5.6115e-06
-2.53616e-06
-2.38501e-06
5.43198e-06
8.52589e-06
2.4132e-06
8.3023e-06
2.54445e-06
8.09036e-06
1.41442e-06
7.945e-06
5.41308e-07
7.85165e-06
-7.62302e-08
7.79785e-06
-5.24749e-07
7.77145e-06
-8.63264e-07
7.76189e-06
-1.13163e-06
7.76008e-06
-1.35538e-06
7.75792e-06
-1.55013e-06
7.74779e-06
-1.72467e-06
7.72223e-06
-1.88298e-06
7.67394e-06
-2.0254e-06
7.59622e-06
-2.14937e-06
7.48385e-06
-2.25013e-06
7.33458e-06
-2.32237e-06
7.14724e-06
-2.34883e-06
-2.15911e-06
6.92134e-06
1.06638e-05
2.14866e-06
1.06893e-05
2.51888e-06
1.05987e-05
1.505e-06
1.04965e-05
6.43571e-07
1.04031e-05
1.71241e-08
1.03243e-05
-4.45928e-07
1.02582e-05
-7.97141e-07
1.01996e-05
-1.07308e-06
1.01422e-05
-1.298e-06
1.00792e-05
-1.48708e-06
1.00036e-05
-1.64904e-06
9.90858e-06
-1.78801e-06
9.78807e-06
-1.90488e-06
9.63692e-06
-1.99822e-06
9.45198e-06
-2.06519e-06
9.23276e-06
-2.10315e-06
8.97909e-06
-2.09516e-06
-1.88155e-06
8.70154e-06
1.31261e-05
1.69936e-06
1.34208e-05
2.22416e-06
1.35037e-05
1.42214e-06
1.34836e-05
6.63611e-07
1.34127e-05
8.80468e-08
1.33167e-05
-3.49896e-07
1.32072e-05
-6.87615e-07
1.30877e-05
-9.53609e-07
1.29574e-05
-1.16771e-06
1.28131e-05
-1.34278e-06
1.26506e-05
-1.48653e-06
1.24655e-05
-1.60297e-06
1.22543e-05
-1.69358e-06
1.20143e-05
-1.75826e-06
1.17452e-05
-1.79609e-06
1.14487e-05
-1.80665e-06
1.11277e-05
-1.77418e-06
-1.55991e-06
1.08061e-05
1.59946e-05
1.15798e-06
1.65408e-05
1.6779e-06
1.68225e-05
1.14048e-06
1.69149e-05
5.71189e-07
1.68888e-05
1.14134e-07
1.67877e-05
-2.48738e-07
1.66372e-05
-5.37141e-07
1.64516e-05
-7.68044e-07
1.6238e-05
-9.54094e-07
1.59992e-05
-1.10394e-06
1.57357e-05
-1.22309e-06
1.54475e-05
-1.31478e-06
1.51347e-05
-1.38073e-06
1.47983e-05
-1.42183e-06
1.44408e-05
-1.43867e-06
1.40665e-05
-1.43227e-06
1.36817e-05
-1.38944e-06
-1.20032e-06
1.33221e-05
1.94174e-05
5.7822e-07
2.0184e-05
9.11288e-07
2.06595e-05
6.64988e-07
2.08701e-05
3.60597e-07
2.08966e-05
8.75955e-08
2.07961e-05
-1.48205e-07
2.06071e-05
-3.48182e-07
2.03549e-05
-5.15788e-07
2.00553e-05
-6.54481e-07
1.97184e-05
-7.67031e-07
1.93508e-05
-8.55504e-07
1.89574e-05
-9.21432e-07
1.85427e-05
-9.66029e-07
1.81113e-05
-9.90413e-07
1.76684e-05
-9.95793e-07
1.72198e-05
-9.83656e-07
1.67748e-05
-9.44456e-07
-8.05324e-07
1.63798e-05
2.35718e-05
-3.02562e-08
2.44771e-05
5.96155e-09
2.50742e-05
6.78987e-08
2.53555e-05
7.93487e-08
2.5406e-05
3.7044e-08
2.5292e-05
-3.42179e-08
2.50615e-05
-1.17681e-07
2.47477e-05
-2.01972e-07
2.43733e-05
-2.80066e-07
2.3954e-05
-3.47698e-07
2.3501e-05
-4.02527e-07
2.30231e-05
-4.43557e-07
2.25278e-05
-4.70676e-07
2.20218e-05
-4.8441e-07
2.15118e-05
-4.85786e-07
2.1004e-05
-4.75858e-07
2.05088e-05
-4.49264e-07
-3.83824e-07
2.00873e-05
1.71172e-05
-3.36722e-07
1.75335e-05
-4.10402e-07
1.77748e-05
-1.73413e-07
1.78558e-05
-1.59885e-09
1.78221e-05
7.07542e-08
1.77073e-05
8.05454e-08
1.7535e-05
5.45941e-08
1.73215e-05
1.15895e-08
1.70778e-05
-3.63511e-08
1.68118e-05
-8.171e-08
1.65293e-05
-1.20044e-07
1.6235e-05
-1.49209e-07
1.59328e-05
-1.68501e-07
1.56266e-05
-1.78195e-07
1.53201e-05
-1.79285e-07
1.50169e-05
-1.72719e-07
1.47241e-05
-1.56418e-07
-1.32879e-07
1.44731e-05
1.48235e-05
-5.25665e-07
1.50016e-05
-5.8852e-07
1.50628e-05
-2.34589e-07
1.5041e-05
2.02223e-08
1.49655e-05
1.46222e-07
1.4854e-05
1.92112e-07
1.47165e-05
1.92068e-07
1.45592e-05
1.68873e-07
1.43859e-05
1.36902e-07
1.41997e-05
1.04547e-07
1.40031e-05
7.65895e-08
1.37985e-05
5.53921e-08
1.3588e-05
4.19367e-08
1.33737e-05
3.61187e-08
1.31576e-05
3.68407e-08
1.29417e-05
4.31094e-08
1.27302e-05
5.51324e-08
5.27369e-08
1.25446e-05
1.28409e-05
-6.26426e-07
1.28514e-05
-5.98985e-07
1.27917e-05
-1.74911e-07
1.27094e-05
1.02506e-07
1.26205e-05
2.35111e-07
1.25288e-05
2.83778e-07
1.24338e-05
2.87139e-07
1.23335e-05
2.69158e-07
1.22264e-05
2.4402e-07
1.21114e-05
2.19526e-07
1.19885e-05
1.99525e-07
1.1858e-05
1.85802e-07
1.17211e-05
1.78861e-07
1.15789e-05
1.78383e-07
1.14321e-05
1.83553e-07
1.12817e-05
1.93603e-07
1.11287e-05
2.08103e-07
1.92543e-07
1.09889e-05
1.10999e-05
-6.35377e-07
1.09766e-05
-4.75681e-07
1.084e-05
-3.83423e-08
1.07347e-05
2.0777e-07
1.06579e-05
3.11924e-07
1.05994e-05
3.42267e-07
1.05498e-05
3.36737e-07
1.05022e-05
3.16845e-07
1.04519e-05
2.94253e-07
1.03965e-05
2.74911e-07
1.03345e-05
2.61557e-07
1.0265e-05
2.55298e-07
1.0188e-05
2.55879e-07
1.01037e-05
2.62651e-07
1.00125e-05
2.74778e-07
9.91423e-06
2.91875e-07
9.80796e-06
3.14377e-07
2.97166e-07
9.70333e-06
9.56812e-06
-5.48285e-07
9.34639e-06
-2.53953e-07
9.17839e-06
1.29658e-07
9.0839e-06
3.02268e-07
9.03793e-06
3.57888e-07
9.01901e-06
3.61192e-07
9.01224e-06
3.43505e-07
9.00847e-06
3.20619e-07
9.00256e-06
3.00161e-07
8.99192e-06
2.85553e-07
8.97528e-06
2.78197e-07
8.95218e-06
2.78396e-07
8.92216e-06
2.85897e-07
8.8846e-06
3.0022e-07
8.83875e-06
3.20623e-07
8.78358e-06
3.47049e-07
8.71633e-06
3.81621e-07
3.72694e-07
8.64081e-06
8.23592e-06
-3.78857e-07
7.96386e-06
1.81121e-08
7.80824e-06
2.85274e-07
7.74818e-06
3.62337e-07
7.74093e-06
3.65135e-07
7.75905e-06
3.43071e-07
7.78641e-06
3.16143e-07
7.81442e-06
2.92608e-07
7.83898e-06
2.75606e-07
7.85849e-06
2.66039e-07
7.87271e-06
2.63981e-07
7.88181e-06
2.69294e-07
7.88577e-06
2.8194e-07
7.88414e-06
3.01849e-07
7.87559e-06
3.29175e-07
7.85756e-06
3.65079e-07
7.82473e-06
4.14446e-07
4.22995e-07
7.77443e-06
7.10449e-06
-1.66068e-07
6.84141e-06
2.81194e-07
6.73431e-06
3.92377e-07
6.72011e-06
3.76532e-07
6.74951e-06
3.35741e-07
6.79572e-06
2.96862e-07
6.84535e-06
2.66516e-07
6.89248e-06
2.45469e-07
6.935e-06
2.33092e-07
6.97262e-06
2.28416e-07
7.00596e-06
2.30638e-07
7.03592e-06
2.39343e-07
7.06326e-06
2.54595e-07
7.08805e-06
2.77062e-07
7.10939e-06
3.0783e-07
7.12446e-06
3.50014e-07
7.12461e-06
4.14291e-07
4.50231e-07
7.09738e-06
6.18017e-06
2.38241e-08
5.99407e-06
4.67302e-07
5.96144e-06
4.25004e-07
5.99507e-06
3.42907e-07
6.05349e-06
2.77318e-07
6.11688e-06
2.33469e-07
6.17758e-06
2.05818e-07
6.23345e-06
1.89599e-07
6.28451e-06
1.82033e-07
6.33166e-06
1.81269e-07
6.37615e-06
1.86149e-07
6.41931e-06
1.96182e-07
6.46239e-06
2.1151e-07
6.50643e-06
2.33029e-07
6.55162e-06
2.6264e-07
6.59647e-06
3.05161e-07
6.63113e-06
3.79633e-07
4.54382e-07
6.62698e-06
5.46889e-06
1.00396e-07
5.43494e-06
5.0125e-07
5.49489e-06
3.65056e-07
5.57641e-06
2.61393e-07
5.65815e-06
1.95576e-07
5.73186e-06
1.59754e-07
5.79734e-06
1.40345e-07
5.85647e-06
1.30466e-07
5.91124e-06
1.27257e-07
5.96349e-06
1.29026e-07
6.01489e-06
1.3475e-07
6.06705e-06
1.4402e-07
6.12157e-06
1.56991e-07
6.18015e-06
1.74449e-07
6.24466e-06
1.9813e-07
6.31706e-06
2.32759e-07
6.39165e-06
3.0504e-07
4.301e-07
6.41594e-06
4.95426e-06
-2.62564e-08
5.14687e-06
3.08641e-07
5.30166e-06
2.10269e-07
5.42461e-06
1.38435e-07
5.52325e-06
9.69428e-08
5.60357e-06
7.9433e-08
5.67276e-06
7.1151e-08
5.73578e-06
6.74487e-08
5.79582e-06
6.72149e-08
5.85522e-06
6.96272e-08
5.91591e-06
7.40684e-08
5.97965e-06
8.02779e-08
6.0483e-06
8.83365e-08
6.12405e-06
9.87039e-08
6.20992e-06
1.12261e-07
6.31237e-06
1.30311e-07
6.44186e-06
1.75547e-07
3.27598e-07
6.54436e-06
4.17642e-06
4.48506e-06
4.69533e-06
4.83377e-06
4.93071e-06
5.01014e-06
5.08129e-06
5.14874e-06
5.21596e-06
5.28558e-06
5.35965e-06
5.43993e-06
5.52827e-06
5.62697e-06
5.73923e-06
5.86954e-06
6.04509e-06
6.37269e-06
2.50056e-07
-2.50055e-07
6.75581e-07
-4.25525e-07
1.13513e-06
-4.59545e-07
1.58224e-06
-4.47112e-07
2.01127e-06
-4.29034e-07
2.42118e-06
-4.09907e-07
2.81173e-06
-3.9055e-07
3.18307e-06
-3.71337e-07
3.53567e-06
-3.52605e-07
3.86976e-06
-3.34089e-07
4.18567e-06
-3.15906e-07
4.48431e-06
-2.98641e-07
4.76682e-06
-2.82514e-07
5.0349e-06
-2.68078e-07
5.28971e-06
-2.54806e-07
5.53102e-06
-2.41306e-07
5.76055e-06
-2.29529e-07
5.98056e-06
-2.2001e-07
6.18914e-06
-2.08579e-07
6.38492e-06
-1.95785e-07
6.56969e-06
-1.8477e-07
6.74544e-06
-1.75748e-07
6.91401e-06
-1.68572e-07
7.07711e-06
-1.63097e-07
7.23626e-06
-1.59154e-07
7.39316e-06
-1.56894e-07
7.54955e-06
-1.56396e-07
7.70612e-06
-1.56568e-07
7.86197e-06
-1.55849e-07
8.01545e-06
-1.53482e-07
8.16609e-06
-1.50638e-07
8.31826e-06
-1.52163e-07
8.48176e-06
-1.63503e-07
8.67533e-06
-1.93572e-07
8.88876e-06
-2.1343e-07
9.08187e-06
-1.93108e-07
9.28996e-06
-2.08091e-07
9.51493e-06
-2.24968e-07
9.68788e-06
-1.72954e-07
9.82659e-06
-1.38702e-07
9.9442e-06
-1.17611e-07
1.00391e-05
-9.49374e-08
1.01213e-05
-8.21473e-08
1.01956e-05
-7.43048e-08
1.02653e-05
-6.97584e-08
1.03326e-05
-6.72465e-08
1.03986e-05
-6.59769e-08
1.0464e-05
-6.54424e-08
1.05293e-05
-6.53233e-08
1.05948e-05
-6.54222e-08
1.06604e-05
-6.56199e-08
1.07262e-05
-6.58509e-08
1.07923e-05
-6.60839e-08
1.08586e-05
-6.63125e-08
1.09252e-05
-6.65455e-08
1.0992e-05
-6.68046e-08
1.10591e-05
-6.71213e-08
1.11266e-05
-6.7534e-08
1.11947e-05
-6.80893e-08
1.12636e-05
-6.88335e-08
1.13334e-05
-6.98081e-08
1.14044e-05
-7.1028e-08
1.14768e-05
-7.23833e-08
1.15504e-05
-7.36084e-08
1.16249e-05
-7.45389e-08
1.17002e-05
-7.52681e-08
1.17762e-05
-7.59522e-08
1.18528e-05
-7.66785e-08
1.19303e-05
-7.75159e-08
1.20089e-05
-7.85222e-08
1.20886e-05
-7.97599e-08
1.21699e-05
-8.12918e-08
1.22531e-05
-8.31853e-08
1.23386e-05
-8.55033e-08
1.24269e-05
-8.82691e-08
1.25184e-05
-9.14941e-08
1.26135e-05
-9.51378e-08
1.27126e-05
-9.91047e-08
1.2816e-05
-1.0342e-07
1.29244e-05
-1.08336e-07
1.30385e-05
-1.14151e-07
1.31592e-05
-1.20656e-07
1.32868e-05
-1.27569e-07
1.34214e-05
-1.34607e-07
1.35637e-05
-1.42349e-07
1.37158e-05
-1.5204e-07
1.38793e-05
-1.63565e-07
1.40552e-05
-1.75865e-07
1.42424e-05
-1.87222e-07
1.44322e-05
-1.89786e-07
1.45963e-05
-1.64141e-07
1.47014e-05
-1.05086e-07
1.47471e-05
-4.56919e-08
1.47558e-05
-8.69136e-09
1.47338e-05
2.20366e-08
1.46865e-05
4.72645e-08
1.4626e-05
6.05516e-08
1.45593e-05
6.6617e-08
1.44888e-05
7.05359e-08
1.44183e-05
7.05465e-08
1.43538e-05
6.44501e-08
1.42991e-05
5.47292e-08
1.42542e-05
4.4888e-08
1.42178e-05
3.638e-08
1.41878e-05
3.002e-08
1.41612e-05
2.65872e-08
1.41352e-05
2.60405e-08
1.41081e-05
2.7131e-08
1.40796e-05
2.84587e-08
1.40498e-05
2.97779e-08
1.40186e-05
3.12845e-08
1.39855e-05
3.30236e-08
1.39507e-05
3.48711e-08
1.39138e-05
3.69098e-08
1.38745e-05
3.93036e-08
1.38321e-05
4.23464e-08
1.37857e-05
4.63795e-08
1.37339e-05
5.17901e-08
1.36748e-05
5.91122e-08
1.36057e-05
6.91473e-08
1.35225e-05
8.31534e-08
1.34189e-05
1.03613e-07
1.32877e-05
1.31247e-07
1.30994e-05
1.88236e-07
1.28192e-05
2.80283e-07
1.25253e-05
2.93819e-07
1.23175e-05
2.07844e-07
1.21636e-05
1.53899e-07
1.20117e-05
1.5188e-07
1.18577e-05
1.53987e-07
1.17167e-05
1.40992e-07
1.15896e-05
1.27125e-07
1.1495e-05
9.46291e-08
1.13896e-05
1.0543e-07
1.11816e-05
2.07908e-07
1.09574e-05
2.24264e-07
1.07795e-05
1.77891e-07
1.06205e-05
1.59006e-07
1.0484e-05
1.36466e-07
1.03615e-05
1.22496e-07
1.02508e-05
1.10748e-07
1.01501e-05
1.00676e-07
1.00572e-05
9.29007e-08
9.96975e-06
8.74309e-08
9.88602e-06
8.37283e-08
9.80487e-06
8.11463e-08
9.72547e-06
7.93982e-08
9.64738e-06
7.80853e-08
9.57065e-06
7.67385e-08
9.49508e-06
7.55617e-08
9.42032e-06
7.47667e-08
9.34578e-06
7.45354e-08
9.27084e-06
7.49415e-08
9.19499e-06
7.5854e-08
9.11765e-06
7.73343e-08
9.03831e-06
7.93395e-08
8.95639e-06
8.19216e-08
8.87133e-06
8.50556e-08
8.78258e-06
8.87519e-08
8.68956e-06
9.30205e-08
8.5917e-06
9.78579e-08
8.48847e-06
1.03235e-07
8.37937e-06
1.091e-07
8.264e-06
1.15372e-07
8.14212e-06
1.21875e-07
8.01387e-06
1.28249e-07
7.88067e-06
1.33203e-07
7.746e-06
1.3467e-07
7.63985e-06
1.06148e-07
7.58685e-06
5.29986e-08
7.55469e-06
3.21666e-08
7.51155e-06
4.31423e-08
7.45472e-06
5.68232e-08
7.38119e-06
7.35368e-08
7.28759e-06
9.35981e-08
7.16905e-06
1.18538e-07
7.01654e-06
1.52507e-07
6.80851e-06
2.08034e-07
6.48096e-06
3.27546e-07
6.77905e-07
5.80306e-06
3.49874e-07
-5.99929e-07
8.28568e-07
-9.04218e-07
1.2822e-06
-9.13177e-07
1.6781e-06
-8.43016e-07
2.02878e-06
-7.79712e-07
2.3477e-06
-7.28822e-07
2.64369e-06
-6.86545e-07
2.92258e-06
-6.5022e-07
3.18782e-06
-6.17852e-07
3.44161e-06
-5.87871e-07
3.68593e-06
-5.60228e-07
3.92144e-06
-5.34146e-07
4.14816e-06
-5.09234e-07
4.36546e-06
-4.85379e-07
4.57273e-06
-4.62074e-07
4.76995e-06
-4.38526e-07
4.95456e-06
-4.14142e-07
5.12399e-06
-3.89442e-07
5.28194e-06
-3.66531e-07
5.43313e-06
-3.46968e-07
5.57929e-06
-3.30936e-07
5.72166e-06
-3.18111e-07
5.86107e-06
-3.07987e-07
5.99777e-06
-2.99789e-07
6.1311e-06
-2.92488e-07
6.25941e-06
-2.85207e-07
6.38091e-06
-2.77888e-07
6.49544e-06
-2.71104e-07
6.60458e-06
-2.64988e-07
6.70974e-06
-2.58641e-07
6.81015e-06
-2.51046e-07
6.90047e-06
-2.42477e-07
6.9755e-06
-2.38539e-07
7.02806e-06
-2.46128e-07
7.07375e-06
-2.5912e-07
7.12825e-06
-2.47605e-07
7.16492e-06
-2.44763e-07
7.18242e-06
-2.4247e-07
7.2222e-06
-2.12733e-07
7.27425e-06
-1.90755e-07
7.32374e-06
-1.671e-07
7.37885e-06
-1.50044e-07
7.43529e-06
-1.38583e-07
7.4921e-06
-1.31114e-07
7.54873e-06
-1.26391e-07
7.60507e-06
-1.23586e-07
7.66116e-06
-1.22068e-07
7.71711e-06
-1.21387e-07
7.77301e-06
-1.21228e-07
7.82897e-06
-1.21383e-07
7.88507e-06
-1.21719e-07
7.94138e-06
-1.22156e-07
7.99795e-06
-1.22653e-07
8.05483e-06
-1.23198e-07
8.11208e-06
-1.23793e-07
8.16974e-06
-1.24458e-07
8.22783e-06
-1.2522e-07
8.28641e-06
-1.26112e-07
8.3455e-06
-1.27172e-07
8.4051e-06
-1.28436e-07
8.46522e-06
-1.29932e-07
8.52586e-06
-1.31668e-07
8.58709e-06
-1.33605e-07
8.64915e-06
-1.35674e-07
8.71246e-06
-1.37852e-07
8.77734e-06
-1.40142e-07
8.84398e-06
-1.42591e-07
8.91258e-06
-1.45278e-07
8.98334e-06
-1.48278e-07
9.05648e-06
-1.51664e-07
9.13223e-06
-1.55505e-07
9.21082e-06
-1.59882e-07
9.29251e-06
-1.6488e-07
9.37759e-06
-1.7058e-07
9.46628e-06
-1.7696e-07
9.55871e-06
-1.83916e-07
9.65472e-06
-1.91157e-07
9.75404e-06
-1.98418e-07
9.85624e-06
-2.05617e-07
9.9606e-06
-2.12702e-07
1.0066e-05
-2.19581e-07
1.01715e-05
-2.26155e-07
1.02763e-05
-2.32297e-07
1.03789e-05
-2.37232e-07
1.04774e-05
-2.40836e-07
1.05678e-05
-2.4251e-07
1.06452e-05
-2.40919e-07
1.07046e-05
-2.35239e-07
1.07423e-05
-2.24928e-07
1.07631e-05
-2.1057e-07
1.07858e-05
-1.86923e-07
1.08257e-05
-1.44969e-07
1.08726e-05
-9.25412e-08
1.09088e-05
-4.49131e-08
1.09334e-05
-2.59742e-09
1.09462e-05
3.44915e-08
1.09444e-05
6.24106e-08
1.09297e-05
8.12313e-08
1.09073e-05
9.30172e-08
1.088e-05
9.78183e-08
1.08499e-05
9.45886e-08
1.0819e-05
8.56048e-08
1.07892e-05
7.46658e-08
1.07617e-05
6.38446e-08
1.07372e-05
5.45843e-08
1.07159e-05
4.7831e-08
1.06981e-05
4.38842e-08
1.06833e-05
4.19791e-08
1.06708e-05
4.09557e-08
1.06603e-05
4.02245e-08
1.06518e-05
3.97888e-08
1.06451e-05
3.97508e-08
1.06399e-05
4.00238e-08
1.06362e-05
4.06141e-08
1.06339e-05
4.16447e-08
1.06329e-05
4.33877e-08
1.0633e-05
4.61999e-08
1.06343e-05
5.05162e-08
1.06365e-05
5.69618e-08
1.06391e-05
6.65355e-08
1.06414e-05
8.08343e-08
1.06422e-05
1.0281e-07
1.06359e-05
1.37514e-07
1.06324e-05
1.91768e-07
1.06219e-05
2.90822e-07
1.06201e-05
2.95628e-07
1.05923e-05
2.35619e-07
1.05241e-05
2.22042e-07
1.04687e-05
2.0734e-07
1.04256e-05
1.97016e-07
1.03771e-05
1.89498e-07
1.03319e-05
1.72353e-07
1.03045e-05
1.22089e-07
1.01806e-05
2.29314e-07
1.00909e-05
2.97537e-07
1.00642e-05
2.50999e-07
9.97736e-06
2.64732e-07
9.89905e-06
2.37313e-07
9.8198e-06
2.15714e-07
9.74466e-06
1.97635e-07
9.67377e-06
1.8164e-07
9.60606e-06
1.68381e-07
9.5407e-06
1.58256e-07
9.47676e-06
1.51368e-07
9.41383e-06
1.46658e-07
9.35163e-06
1.4335e-07
9.29023e-06
1.408e-07
9.23028e-06
1.38035e-07
9.17225e-06
1.34763e-07
9.11621e-06
1.31606e-07
9.06218e-06
1.28795e-07
9.01011e-06
1.266e-07
8.96003e-06
1.25029e-07
8.9119e-06
1.2398e-07
8.86575e-06
1.23484e-07
8.82155e-06
1.23536e-07
8.77933e-06
1.24145e-07
8.73908e-06
1.25302e-07
8.70085e-06
1.26983e-07
8.6647e-06
1.29176e-07
8.63066e-06
1.31894e-07
8.59873e-06
1.35169e-07
8.56881e-06
1.39016e-07
8.54078e-06
1.4341e-07
8.5144e-06
1.48248e-07
8.48941e-06
1.53245e-07
8.46565e-06
1.56956e-07
8.44327e-06
1.57055e-07
8.39638e-06
1.53039e-07
8.29747e-06
1.51903e-07
8.16894e-06
1.60704e-07
8.03558e-06
1.76501e-07
7.89815e-06
1.94254e-07
7.75644e-06
2.15243e-07
7.60914e-06
2.40899e-07
7.4535e-06
2.74181e-07
7.28434e-06
3.21661e-07
7.09229e-06
4.00085e-07
6.86334e-06
5.565e-07
9.245e-07
6.61674e-06
3.68982e-07
-9.6891e-07
8.25759e-07
-1.36099e-06
1.22427e-06
-1.31169e-06
1.55438e-06
-1.17313e-06
1.83731e-06
-1.06264e-06
2.08861e-06
-9.80124e-07
2.31817e-06
-9.16103e-07
2.5321e-06
-8.64148e-07
2.73383e-06
-8.19584e-07
2.9262e-06
-7.80242e-07
3.11028e-06
-7.44306e-07
3.28686e-06
-7.10727e-07
3.4569e-06
-6.79277e-07
3.62068e-06
-6.49156e-07
3.77806e-06
-6.19455e-07
3.9295e-06
-5.89968e-07
4.07644e-06
-5.61083e-07
4.22032e-06
-5.3332e-07
4.36132e-06
-5.07528e-07
4.49858e-06
-4.84224e-07
4.63115e-06
-4.63515e-07
4.75826e-06
-4.45212e-07
4.87908e-06
-4.28815e-07
4.99279e-06
-4.13495e-07
5.09852e-06
-3.98219e-07
5.19546e-06
-3.8214e-07
5.28274e-06
-3.65172e-07
5.35978e-06
-3.48146e-07
5.42685e-06
-3.32053e-07
5.48526e-06
-3.17057e-07
5.53668e-06
-3.02465e-07
5.58206e-06
-2.8785e-07
5.61866e-06
-2.75142e-07
5.63985e-06
-2.67317e-07
5.64442e-06
-2.63692e-07
5.65306e-06
-2.56246e-07
5.65419e-06
-2.45887e-07
5.64695e-06
-2.35234e-07
5.65393e-06
-2.19711e-07
5.66492e-06
-2.01741e-07
5.68297e-06
-1.85152e-07
5.70574e-06
-1.72816e-07
5.73112e-06
-1.6396e-07
5.75777e-06
-1.57768e-07
5.78501e-06
-1.53625e-07
5.81248e-06
-1.51058e-07
5.84008e-06
-1.49672e-07
5.86784e-06
-1.49149e-07
5.89586e-06
-1.49243e-07
5.92425e-06
-1.49769e-07
5.95313e-06
-1.50598e-07
5.98261e-06
-1.51642e-07
6.01281e-06
-1.5285e-07
6.04381e-06
-1.54196e-07
6.07569e-06
-1.55675e-07
6.10853e-06
-1.573e-07
6.1424e-06
-1.59093e-07
6.17738e-06
-1.61084e-07
6.21351e-06
-1.63309e-07
6.25088e-06
-1.658e-07
6.28953e-06
-1.68582e-07
6.32953e-06
-1.71667e-07
6.37097e-06
-1.75044e-07
6.41398e-06
-1.78688e-07
6.45874e-06
-1.82608e-07
6.50544e-06
-1.86841e-07
6.55428e-06
-1.91437e-07
6.60547e-06
-1.96462e-07
6.65917e-06
-2.01983e-07
6.71558e-06
-2.08073e-07
6.77489e-06
-2.14808e-07
6.83728e-06
-2.22274e-07
6.90297e-06
-2.30572e-07
6.97222e-06
-2.39826e-07
7.04511e-06
-2.49853e-07
7.12137e-06
-2.60172e-07
7.2006e-06
-2.70384e-07
7.28281e-06
-2.80637e-07
7.36816e-06
-2.90964e-07
7.45669e-06
-3.01232e-07
7.54829e-06
-3.11175e-07
7.64271e-06
-3.20581e-07
7.73935e-06
-3.28929e-07
7.83744e-06
-3.35329e-07
7.9355e-06
-3.3889e-07
8.03157e-06
-3.38582e-07
8.1238e-06
-3.33144e-07
8.20978e-06
-3.21224e-07
8.2867e-06
-3.0185e-07
8.35122e-06
-2.75084e-07
8.40516e-06
-2.40861e-07
8.45838e-06
-1.98188e-07
8.5145e-06
-1.48669e-07
8.56663e-06
-9.70409e-08
8.61115e-06
-4.71139e-08
8.6473e-06
-1.65492e-09
8.67344e-06
3.6271e-08
8.68998e-06
6.46916e-08
8.69875e-06
8.42533e-08
8.70054e-06
9.60241e-08
8.69422e-06
1.00909e-07
8.67951e-06
1.00315e-07
8.65832e-06
9.58613e-08
8.63283e-06
8.93373e-08
8.60523e-06
8.2186e-08
8.57743e-06
7.56346e-08
8.55097e-06
7.03477e-08
8.52661e-06
6.63417e-08
8.50433e-06
6.32315e-08
8.48393e-06
6.06332e-08
8.46533e-06
5.8387e-08
8.44858e-06
5.64987e-08
8.43366e-06
5.49496e-08
8.42054e-06
5.37309e-08
8.40926e-06
5.29322e-08
8.39988e-06
5.27638e-08
8.39255e-06
5.35288e-08
8.38745e-06
5.56238e-08
8.3848e-06
5.96088e-08
8.385e-06
6.634e-08
8.38855e-06
7.72767e-08
8.39631e-06
9.50501e-08
8.40983e-06
1.23999e-07
8.43415e-06
1.6745e-07
8.49203e-06
2.32945e-07
8.5138e-06
2.73858e-07
8.4957e-06
2.53718e-07
8.49769e-06
2.20053e-07
8.49291e-06
2.12116e-07
8.47696e-06
2.12968e-07
8.45595e-06
2.10513e-07
8.42793e-06
2.00371e-07
8.37856e-06
1.71456e-07
8.39284e-06
2.1503e-07
8.37383e-06
3.16548e-07
8.27275e-06
3.52082e-07
8.21272e-06
3.24762e-07
8.16792e-06
2.82109e-07
8.13038e-06
2.53253e-07
8.09466e-06
2.33347e-07
8.05872e-06
2.17586e-07
8.02193e-06
2.05166e-07
7.98343e-06
1.96756e-07
7.94314e-06
1.91654e-07
7.90128e-06
1.88519e-07
7.85794e-06
1.86692e-07
7.81328e-06
1.85459e-07
7.76715e-06
1.84166e-07
7.72005e-06
1.81856e-07
7.67304e-06
1.78618e-07
7.62642e-06
1.75413e-07
7.58033e-06
1.72689e-07
7.5348e-06
1.70558e-07
7.48991e-06
1.68876e-07
7.44584e-06
1.67555e-07
7.40278e-06
1.66592e-07
7.36096e-06
1.65968e-07
7.32058e-06
1.65676e-07
7.28189e-06
1.65678e-07
7.24514e-06
1.65925e-07
7.21064e-06
1.66393e-07
7.1787e-06
1.67104e-07
7.14961e-06
1.68104e-07
7.1236e-06
1.6942e-07
7.10086e-06
1.70995e-07
7.08156e-06
1.72539e-07
7.06577e-06
1.72748e-07
7.05052e-06
1.72308e-07
7.02245e-06
1.81112e-07
6.97211e-06
2.02235e-07
6.90923e-06
2.23585e-07
6.84375e-06
2.41983e-07
6.77612e-06
2.61879e-07
6.70578e-06
2.8559e-07
6.63138e-06
3.15294e-07
6.55088e-06
3.54682e-07
6.46142e-06
4.11121e-07
6.36044e-06
5.01071e-07
6.25297e-06
6.63964e-07
9.83162e-07
6.19431e-06
3.75854e-07
-1.34476e-06
8.12369e-07
-1.79751e-06
1.17487e-06
-1.67419e-06
1.46585e-06
-1.46411e-06
1.71013e-06
-1.30692e-06
1.92382e-06
-1.19381e-06
2.1162e-06
-1.10848e-06
2.29243e-06
-1.04038e-06
2.45634e-06
-9.83496e-07
2.61029e-06
-9.34193e-07
2.75613e-06
-8.90143e-07
2.89605e-06
-8.50645e-07
3.03139e-06
-8.14619e-07
3.16305e-06
-7.80815e-07
3.29207e-06
-7.48479e-07
3.41929e-06
-7.17186e-07
3.54489e-06
-6.86685e-07
3.66855e-06
-6.56981e-07
3.78929e-06
-6.28263e-07
3.90577e-06
-6.00706e-07
4.01662e-06
-5.74364e-07
4.12052e-06
-5.49113e-07
4.21632e-06
-5.24614e-07
4.30317e-06
-5.00342e-07
4.38067e-06
-4.75721e-07
4.44893e-06
-4.50399e-07
4.5083e-06
-4.24547e-07
4.55908e-06
-3.98917e-07
4.60143e-06
-3.74412e-07
4.63587e-06
-3.51492e-07
4.66344e-06
-3.30035e-07
4.68551e-06
-3.0992e-07
4.70211e-06
-2.9174e-07
4.71131e-06
-2.7652e-07
4.71172e-06
-2.64103e-07
4.70775e-06
-2.52278e-07
4.70149e-06
-2.39626e-07
4.69327e-06
-2.27008e-07
4.68743e-06
-2.13878e-07
4.68597e-06
-2.00281e-07
4.6889e-06
-1.88081e-07
4.69449e-06
-1.78399e-07
4.70169e-06
-1.71166e-07
4.70994e-06
-1.66017e-07
4.7189e-06
-1.62585e-07
4.72839e-06
-1.60545e-07
4.73833e-06
-1.59611e-07
4.74872e-06
-1.59543e-07
4.75962e-06
-1.6014e-07
4.7711e-06
-1.61246e-07
4.78324e-06
-1.62742e-07
4.79614e-06
-1.64545e-07
4.80989e-06
-1.666e-07
4.82458e-06
-1.68877e-07
4.84027e-06
-1.71366e-07
4.85704e-06
-1.74073e-07
4.87496e-06
-1.77017e-07
4.89411e-06
-1.80225e-07
4.91452e-06
-1.83727e-07
4.93628e-06
-1.87553e-07
4.95942e-06
-1.91728e-07
4.98402e-06
-1.96266e-07
5.01015e-06
-2.01169e-07
5.0379e-06
-2.06439e-07
5.06738e-06
-2.12091e-07
5.09871e-06
-2.18169e-07
5.132e-06
-2.24731e-07
5.16739e-06
-2.31845e-07
5.20498e-06
-2.3958e-07
5.24491e-06
-2.48003e-07
5.2873e-06
-2.57189e-07
5.33224e-06
-2.67217e-07
5.37988e-06
-2.78215e-07
5.43026e-06
-2.90208e-07
5.4832e-06
-3.02786e-07
5.53863e-06
-3.15602e-07
5.59684e-06
-3.2859e-07
5.65796e-06
-3.41761e-07
5.72205e-06
-3.55058e-07
5.78912e-06
-3.683e-07
5.85911e-06
-3.81158e-07
5.93172e-06
-3.93192e-07
6.00663e-06
-4.03845e-07
6.08361e-06
-4.1231e-07
6.16227e-06
-4.17549e-07
6.24209e-06
-4.18403e-07
6.32254e-06
-4.13594e-07
6.40315e-06
-4.01832e-07
6.48337e-06
-3.82067e-07
6.56213e-06
-3.53846e-07
6.63864e-06
-3.17371e-07
6.71372e-06
-2.73271e-07
6.78828e-06
-2.23224e-07
6.86156e-06
-1.70319e-07
6.93206e-06
-1.17615e-07
6.9981e-06
-6.76903e-08
7.05749e-06
-2.31268e-08
7.10826e-06
1.39291e-08
7.14982e-06
4.26914e-08
7.18167e-06
6.41793e-08
7.20287e-06
7.97117e-08
7.21379e-06
8.93896e-08
7.21539e-06
9.42696e-08
7.20912e-06
9.56024e-08
7.19676e-06
9.4548e-08
7.18009e-06
9.23079e-08
7.16077e-06
8.96732e-08
7.14001e-06
8.71006e-08
7.11852e-06
8.47235e-08
7.0967e-06
8.24525e-08
7.07491e-06
8.01791e-08
7.05352e-06
7.78931e-08
7.03284e-06
7.56277e-08
7.01315e-06
7.34244e-08
6.99469e-06
7.13857e-08
6.97776e-06
6.97024e-08
6.96264e-06
6.86499e-08
6.94966e-06
6.86008e-08
6.93919e-06
7.00759e-08
6.93171e-06
7.38231e-08
6.92799e-06
8.09994e-08
6.92949e-06
9.35472e-08
6.93889e-06
1.14599e-07
6.95995e-06
1.46398e-07
7.00418e-06
1.88713e-07
7.05427e-06
2.23769e-07
7.08626e-06
2.21727e-07
7.10473e-06
2.01589e-07
7.11723e-06
1.99614e-07
7.12276e-06
2.07437e-07
7.12352e-06
2.09748e-07
7.11531e-06
2.08581e-07