/*--------------------------------*- C++ -*----------------------------------*\
  =========                 |
  \\      /  F ield         | OpenFOAM: The Open Source CFD Toolbox
   \\    /   O peration     | Website:  https://openfoam.org
    \\  /    A nd           | Version:  9
     \\/     M anipulation  |
\*---------------------------------------------------------------------------*/
FoamFile
{
    format      ascii;
    class       volVectorField;
    location    "0.2";
    object      U;
}
// * * * * * * * * * * * * * * * * * * * * * * * * * * * * * * * * * * * * * //

dimensions      [0 1 -1 0 0 0 0];

internalField   nonuniform List<vector> 
12225
(
(10.2594 -0.314157 0)
(10.1658 -0.349276 0)
(12.8138 -0.124869 0)
(13.0304 -0.0470273 0)
(13.1336 -0.026751 0)
(13.2885 -0.0261975 0)
(13.4756 -0.0327502 0)
(13.7176 -0.0432987 0)
(14.0308 -0.0572702 0)
(14.4284 -0.0747465 0)
(14.9247 -0.0965603 0)
(15.5401 -0.124666 0)
(16.3067 -0.162918 0)
(17.2807 -0.219111 0)
(18.5673 -0.310828 0)
(20.3775 -0.48495 0)
(23.3987 -0.903519 0)
(31.1129 -3.18756 0)
(10.8389 -0.172044 0)
(10.8946 -0.447659 0)
(12.8117 -0.22736 0)
(13.1006 -0.127183 0)
(13.3445 -0.0852023 0)
(13.6016 -0.0831676 0)
(13.8803 -0.101365 0)
(14.2104 -0.131207 0)
(14.6084 -0.170177 0)
(15.0865 -0.218457 0)
(15.6578 -0.278475 0)
(16.3413 -0.355544 0)
(17.1665 -0.459779 0)
(18.1824 -0.611154 0)
(19.4752 -0.853342 0)
(21.2024 -1.29615 0)
(23.6823 -2.28689 0)
(28.2158 -5.37885 0)
(10.4193 -0.416515 0)
(9.64027 -0.637947 0)
(10.8826 -0.332627 0)
(11.0169 -0.206338 0)
(11.2185 -0.15518 0)
(11.4537 -0.156399 0)
(11.7146 -0.187297 0)
(12.0179 -0.236399 0)
(12.3746 -0.299745 0)
(12.7937 -0.377699 0)
(13.2853 -0.474237 0)
(13.8636 -0.597707 0)
(14.55 -0.763568 0)
(15.3777 -1.0013 0)
(16.3981 -1.37177 0)
(17.6759 -2.0129 0)
(19.2664 -3.27842 0)
(21.2671 -6.04969 0)
(10.1077 -0.411959 0)
(8.82895 -0.63732 0)
(9.60708 -0.377324 0)
(9.59922 -0.257815 0)
(9.74427 -0.213947 0)
(9.9478 -0.22447 0)
(10.1843 -0.268759 0)
(10.4592 -0.335296 0)
(10.7781 -0.419929 0)
(11.1468 -0.523502 0)
(11.5725 -0.651241 0)
(12.0652 -0.813656 0)
(12.6381 -1.02956 0)
(13.309 -1.33313 0)
(14.0973 -1.78929 0)
(14.9991 -2.52733 0)
(15.9268 -3.80662 0)
(16.6777 -5.98181 0)
(9.93794 -0.277834 0)
(8.43696 -0.526791 0)
(8.92254 -0.370655 0)
(8.80296 -0.286538 0)
(8.8943 -0.263592 0)
(9.0662 -0.289186 0)
(9.27878 -0.34822 0)
(9.52817 -0.431277 0)
(9.81528 -0.53504 0)
(10.1431 -0.661071 0)
(10.516 -0.815533 0)
(10.9397 -1.01014 0)
(11.4206 -1.26495 0)
(11.9635 -1.6141 0)
(12.5642 -2.11635 0)
(13.1782 -2.87238 0)
(13.6737 -4.04333 0)
(13.8068 -5.68432 0)
(9.86206 -0.076886 0)
(8.29253 -0.350855 0)
(8.59522 -0.320713 0)
(8.38156 -0.292449 0)
(8.41649 -0.30199 0)
(8.55255 -0.348585 0)
(8.73852 -0.424507 0)
(8.96263 -0.52397 0)
(9.22099 -0.645353 0)
(9.51333 -0.791172 0)
(9.841 -0.968227 0)
(10.2057 -1.18853 0)
(10.6075 -1.47144 0)
(11.0413 -1.84745 0)
(11.4875 -2.3634 0)
(11.8828 -3.08757 0)
(12.0979 -4.10236 0)
(11.955 -5.30514 0)
(9.84294 0.150801 0)
(8.28769 -0.135482 0)
(8.48239 -0.23368 0)
(8.19191 -0.275015 0)
(8.17063 -0.32681 0)
(8.26769 -0.400477 0)
(8.42392 -0.496267 0)
(8.6212 -0.612905 0)
(8.85116 -0.751091 0)
(9.11011 -0.914487 0)
(9.3962 -1.11027 0)
(9.70725 -1.34996 0)
(10.0382 -1.65072 0)
(10.3769 -2.03718 0)
(10.6955 -2.54251 0)
(10.9255 -3.20641 0)
(10.9628 -4.0569 0)
(10.7056 -4.90998 0)
(9.85735 0.381953 0)
(8.36211 0.102312 0)
(8.5023 -0.115276 0)
(8.15267 -0.234133 0)
(8.07861 -0.33574 0)
(8.13544 -0.442029 0)
(8.25933 -0.560908 0)
(8.42752 -0.695916 0)
(8.6278 -0.850431 0)
(8.85325 -1.02937 0)
(9.09893 -1.24006 0)
(9.35927 -1.49287 0)
(9.62525 -1.80186 0)
(9.88042 -2.18489 0)
(10.094 -2.6622 0)
(10.2009 -3.25134 0)
(10.1307 -3.94606 0)
(9.8367 -4.52818 0)
(9.89053 0.600004 0)
(8.48004 0.348403 0)
(8.60463 0.0279522 0)
(8.21323 -0.171162 0)
(8.09245 -0.327655 0)
(8.10994 -0.471087 0)
(8.19998 -0.616014 0)
(8.33692 -0.770633 0)
(8.50561 -0.941091 0)
(8.69633 -1.13357 0)
(8.90147 -1.35534 0)
(9.11273 -1.61527 0)
(9.31848 -1.92383 0)
(9.5004 -2.29229 0)
(9.62856 -2.7301 0)
(9.64595 -3.2392 0)
(9.51559 -3.79419 0)
(9.21987 -4.16931 0)
(9.91713 0.811423 0)
(8.57377 0.606629 0)
(8.70207 0.196414 0)
(8.28532 -0.0874625 0)
(8.12745 -0.305269 0)
(8.11023 -0.491703 0)
(8.168 -0.666975 0)
(8.27382 -0.843737 0)
(8.41059 -1.03096 0)
(8.56658 -1.23612 0)
(8.73214 -1.46636 0)
(8.89721 -1.72889 0)
(9.04886 -2.03072 0)
(9.16901 -2.37736 0)
(9.23106 -2.77003 0)
(9.18757 -3.20079 0)
(9.03143 -3.63494 0)
(8.75104 -3.85276 0)
(9.86927 0.997147 0)
(8.45844 0.864766 0)
(8.55842 0.381962 0)
(8.13002 0.0230102 0)
(7.95088 -0.250872 0)
(7.91036 -0.477769 0)
(7.94372 -0.681669 0)
(8.02384 -0.878784 0)
(8.13287 -1.08047 0)
(8.25807 -1.29528 0)
(8.38887 -1.5301 0)
(8.51457 -1.79061 0)
(8.6225 -2.08084 0)
(8.69656 -2.40189 0)
(8.71517 -2.74957 0)
(8.64104 -3.11063 0)
(8.49022 -3.44696 0)
(8.25976 -3.56635 0)
(9.88544 1.28657 0)
(8.54564 1.14754 0)
(8.63528 0.549113 0)
(8.20526 0.103256 0)
(8.00685 -0.233115 0)
(7.93602 -0.503087 0)
(7.93431 -0.736372 0)
(7.9758 -0.953228 0)
(8.04285 -1.16744 0)
(8.12251 -1.38857 0)
(8.20394 -1.62336 0)
(8.27662 -1.87624 0)
(8.32898 -2.14905 0)
(8.34773 -2.44004 0)
(8.31694 -2.74221 0)
(8.20966 -3.04134 0)
(8.0515 -3.30549 0)
(7.88609 -3.34828 0)
(9.95393 1.44507 0)
(8.73426 1.41429 0)
(8.93442 0.746302 0)
(8.54921 0.235521 0)
(8.35975 -0.150422 0)
(8.28391 -0.455737 0)
(8.26648 -0.713603 0)
(8.2857 -0.947032 0)
(8.32601 -1.17157 0)
(8.37539 -1.3976 0)
(8.42358 -1.63179 0)
(8.4607 -1.87777 0)
(8.47649 -2.13609 0)
(8.46011 -2.40367 0)
(8.39926 -2.6729 0)
(8.2704 -2.93168 0)
(8.1271 -3.15352 0)
(7.91204 -3.12201 0)
(10.1291 1.56054 0)
(9.25379 1.6488 0)
(9.71641 0.925521 0)
(9.42162 0.348125 0)
(9.25033 -0.0874501 0)
(9.1652 -0.429611 0)
(9.12033 -0.713691 0)
(9.10154 -0.964635 0)
(9.09707 -1.19924 0)
(9.09687 -1.42839 0)
(9.09179 -1.65855 0)
(9.073 -1.89261 0)
(9.03175 -2.13015 0)
(8.95957 -2.36737 0)
(8.8469 -2.59694 0)
(8.67059 -2.80923 0)
(8.52041 -2.9799 0)
(8.22354 -2.88348 0)
(10.24 1.46006 0)
(9.62124 1.70614 0)
(10.3641 1.03054 0)
(10.1857 0.441256 0)
(10.0508 -0.0127633 0)
(9.9653 -0.373209 0)
(9.89544 -0.67163 0)
(9.8364 -0.9314 0)
(9.782 -1.16858 0)
(9.72563 -1.39348 0)
(9.66054 -1.61191 0)
(9.58006 -1.82607 0)
(9.47781 -2.03501 0)
(9.34819 -2.235 0)
(9.18408 -2.41983 0)
(8.96191 -2.58246 0)
(8.80955 -2.69855 0)
(8.43562 -2.55005 0)
(10.2745 1.21696 0)
(9.77503 1.58853 0)
(10.7604 1.03013 0)
(10.7022 0.486225 0)
(10.6202 0.0508031 0)
(10.549 -0.303252 0)
(10.4656 -0.599236 0)
(10.3747 -0.855765 0)
(10.2765 -1.08612 0)
(10.1689 -1.29887 0)
(10.0487 -1.4987 0)
(9.9125 -1.68715 0)
(9.75685 -1.86317 0)
(9.57925 -2.02364 0)
(9.37479 -2.16393 0)
(9.11939 -2.27932 0)
(8.978 -2.34593 0)
(8.54511 -2.16657 0)
(10.2625 0.89438 0)
(9.7787 1.29999 0)
(10.9417 0.898503 0)
(10.9828 0.457615 0)
(10.9561 0.0864186 0)
(10.9084 -0.226313 0)
(10.8234 -0.493465 0)
(10.7128 -0.726669 0)
(10.5829 -0.934668 0)
(10.4363 -1.12316 0)
(10.2738 -1.29514 0)
(10.0955 -1.4514 0)
(9.90103 -1.59101 0)
(9.69082 -1.71177 0)
(9.46161 -1.81077 0)
(9.18878 -1.88537 0)
(9.06996 -1.91426 0)
(8.59748 -1.73336 0)
(10.2369 0.53396 0)
(9.71564 0.857695 0)
(10.9913 0.630253 0)
(11.0948 0.342263 0)
(11.1087 0.0817812 0)
(11.0823 -0.150137 0)
(11.0011 -0.356436 0)
(10.8813 -0.541018 0)
(10.7333 -0.707101 0)
(10.5634 -0.856713 0)
(10.3758 -0.990682 0)
(10.1734 -1.10883 0)
(9.95848 -1.21025 0)
(9.73341 -1.29358 0)
(9.49589 -1.35737 0)
(9.22046 -1.40057 0)
(9.13095 -1.40645 0)
(8.63442 -1.25418 0)
(10.2159 0.161218 0)
(9.63696 0.27787 0)
(10.9414 0.232807 0)
(11.0542 0.146477 0)
(11.0763 0.0413801 0)
(11.0557 -0.0717652 0)
(10.9763 -0.18647 0)
(10.8548 -0.298366 0)
(10.7031 -0.404458 0)
(10.529 -0.50243 0)
(10.3381 -0.590409 0)
(10.1347 -0.666829 0)
(9.92221 -0.730364 0)
(9.7036 -0.779969 0)
(9.4767 -0.814933 0)
(9.21511 -0.834775 0)
(9.15691 -0.828367 0)
(8.66138 -0.73315 0)
(10.1754 -0.119731 0)
(9.53414 -0.165923 0)
(10.6412 -0.066553 0)
(10.6619 0.00765055 0)
(10.6289 0.0290086 0)
(10.5798 0.0143056 0)
(10.491 -0.023252 0)
(10.3742 -0.0733306 0)
(10.2369 -0.128436 0)
(10.0844 -0.183097 0)
(9.92063 -0.233393 0)
(9.74855 -0.276716 0)
(9.57065 -0.311416 0)
(9.38922 -0.336572 0)
(9.202 -0.35187 0)
(8.98365 -0.357033 0)
(8.94665 -0.346605 0)
(8.54896 -0.308504 0)
(10.1545 -0.28255 0)
(9.45564 -0.353923 0)
(10.4036 -0.161877 0)
(10.3415 -0.00810063 0)
(10.2631 0.0735163 0)
(10.1955 0.104785 0)
(10.1084 0.103453 0)
(10.0067 0.083131 0)
(9.89325 0.0536076 0)
(9.76995 0.0215457 0)
(9.63879 -0.00847166 0)
(9.50138 -0.0335752 0)
(9.35933 -0.0519575 0)
(9.21392 -0.0627853 0)
(9.0626 -0.066227 0)
(8.88067 -0.0624631 0)
(8.85809 -0.0494219 0)
(8.5294 -0.0412696 0)
(10.1382 -0.374244 0)
(9.38079 -0.412715 0)
(10.1895 -0.157971 0)
(10.0563 0.0339156 0)
(9.94613 0.13895 0)
(9.87288 0.186691 0)
(9.79908 0.199238 0)
(9.72245 0.19229 0)
(9.64135 0.176436 0)
(9.55435 0.158369 0)
(9.46091 0.142245 0)
(9.36159 0.130636 0)
(9.25632 0.125082 0)
(9.14663 0.126263 0)
(9.02969 0.133999 0)
(8.88136 0.147996 0)
(8.86923 0.168579 0)
(8.59955 0.161257 0)
(10.1143 -0.411292 0)
(9.27791 -0.374384 0)
(9.95304 -0.086167 0)
(9.76471 0.106504 0)
(9.64331 0.205238 0)
(9.58221 0.247866 0)
(9.53444 0.259038 0)
(9.49159 0.254682 0)
(9.44811 0.24469 0)
(9.40098 0.234965 0)
(9.34833 0.228823 0)
(9.2894 0.228244 0)
(9.22314 0.234086 0)
(9.1506 0.246631 0)
(9.06835 0.265784 0)
(8.95413 0.291691 0)
(8.95101 0.324812 0)
(8.74088 0.314856 0)
(10.0801 -0.386477 0)
(9.13812 -0.256904 0)
(9.70197 0.0246991 0)
(9.48578 0.183711 0)
(9.3788 0.254653 0)
(9.34762 0.279583 0)
(9.33654 0.282031 0)
(9.33258 0.275575 0)
(9.32844 0.267896 0)
(9.32034 0.263299 0)
(9.30655 0.26426 0)
(9.28603 0.272206 0)
(9.25886 0.287662 0)
(9.22404 0.31082 0)
(9.17877 0.341591 0)
(9.10031 0.380462 0)
(9.10737 0.429719 0)
(8.95829 0.428609 0)
(10.0438 -0.298405 0)
(8.98276 -0.0861774 0)
(9.48407 0.143415 0)
(9.27489 0.243946 0)
(9.20587 0.276642 0)
(9.21671 0.280206 0)
(9.24656 0.272957 0)
(9.28101 0.264043 0)
(9.313 0.258082 0)
(9.33949 0.257464 0)
(9.3596 0.263579 0)
(9.37349 0.277313 0)
(9.38144 0.299421 0)
(9.38303 0.330526 0)
(9.37584 0.371214 0)
(9.33729 0.4229 0)
(9.3586 0.490606 0)
(9.27233 0.50856 0)
(10.0262 -0.162009 0)
(8.8606 0.102701 0)
(9.37778 0.241582 0)
(9.21219 0.274041 0)
(9.19694 0.269158 0)
(9.25348 0.254675 0)
(9.32134 0.240692 0)
(9.38846 0.231042 0)
(9.45004 0.227259 0)
(9.50478 0.229964 0)
(9.5531 0.239558 0)
(9.59615 0.256585 0)
(9.63513 0.281953 0)
(9.67108 0.316924 0)
(9.70168 0.363214 0)
(9.7074 0.424442 0)
(9.75156 0.510937 0)
(9.73069 0.558353 0)
(10.0632 -0.0216416 0)
(8.8515 0.265886 0)
(9.49649 0.297056 0)
(9.40896 0.269425 0)
(9.45438 0.236551 0)
(9.55329 0.211486 0)
(9.65168 0.195188 0)
(9.7433 0.186698 0)
(9.82702 0.185251 0)
(9.90377 0.190288 0)
(9.97531 0.201586 0)
(10.0437 0.219402 0)
(10.1111 0.244598 0)
(10.1792 0.278923 0)
(10.2488 0.325124 0)
(10.303 0.389089 0)
(10.3824 0.490146 0)
(10.4311 0.578736 0)
(10.2031 0.0514373 0)
(9.06727 0.347837 0)
(9.99476 0.292239 0)
(10.0225 0.229449 0)
(10.134 0.184406 0)
(10.2737 0.158051 0)
(10.398 0.143866 0)
(10.5094 0.137898 0)
(10.6113 0.138401 0)
(10.7071 0.144391 0)
(10.8 0.1554 0)
(10.8928 0.171523 0)
(10.9884 0.193493 0)
(11.0898 0.222908 0)
(11.1998 0.262784 0)
(11.3092 0.320116 0)
(11.4423 0.423971 0)
(11.5659 0.566277 0)
(10.4557 -0.069069 0)
(9.60676 0.262803 0)
(11.0137 0.211593 0)
(11.1792 0.151893 0)
(11.3519 0.114867 0)
(11.5312 0.096779 0)
(11.6826 0.0884487 0)
(11.8175 0.0858113 0)
(11.9437 0.0876176 0)
(12.0665 0.0931491 0)
(12.1901 0.101995 0)
(12.3182 0.11417 0)
(12.4545 0.130159 0)
(12.6031 0.151101 0)
(12.769 0.179133 0)
(12.9512 0.219186 0)
(13.1758 0.302861 0)
(13.3857 0.486978 0)
(10.1517 0.0950489 0)
(9.09529 0.251046 0)
(11.2104 0.129723 0)
(11.46 0.0680106 0)
(11.6337 0.0476559 0)
(11.8332 0.0404977 0)
(12.0089 0.037272 0)
(12.1713 0.0360661 0)
(12.3297 0.0367479 0)
(12.4913 0.0391228 0)
(12.6613 0.0429789 0)
(12.8441 0.0482666 0)
(13.0438 0.0551312 0)
(13.2651 0.0640308 0)
(13.5142 0.075751 0)
(13.7956 0.0916204 0)
(14.1387 0.129326 0)
(14.3651 0.254972 0)
(0.113812 -0.232101 3.06028e-17)
(0.39504 -0.408195 -2.68641e-17)
(0.805482 -0.455928 0)
(1.20912 -0.461339 0)
(1.60104 -0.455093 0)
(1.97434 -0.440208 1.90615e-17)
(2.33088 -0.420729 0)
(2.67035 -0.398985 0)
(2.99295 -0.376507 0)
(3.29998 -0.353811 0)
(3.58932 -0.330884 -1.64174e-17)
(3.86542 -0.310001 0)
(4.12493 -0.290398 0)
(4.37184 -0.273264 0)
(4.60551 -0.258426 0)
(4.83159 -0.243426 -1.55617e-17)
(5.03271 -0.228628 0)
(5.234 -0.21489 0)
(5.43864 -0.199039 0)
(5.62197 -0.182307 0)
(5.79543 -0.168819 0)
(5.95985 -0.158323 0)
(6.11666 -0.15015 0)
(6.26767 -0.143879 -1.18978e-17)
(6.41443 -0.139329 1.15319e-17)
(6.55811 -0.137121 -1.1199e-17)
(6.70158 -0.138177 -1.08656e-17)
(6.84659 -0.14098 0)
(6.99048 -0.141726 0)
(7.1342 -0.137618 9.88728e-18)
(7.27041 -0.128726 9.62956e-18)
(7.41219 -0.125959 0)
(7.57212 -0.144909 0)
(7.68648 -0.186912 8.72998e-18)
(7.91775 -0.211275 0)
(8.19972 -0.170817 0)
(8.12753 -0.18744 -8.94239e-18)
(8.581 -0.215467 0)
(8.70057 -0.149922 -8.71751e-18)
(8.7751 -0.123606 -1.77327e-17)
(8.94767 -0.0983547 0)
(9.04247 -0.0732986 0)
(9.12794 -0.0615873 0)
(9.20328 -0.0550915 0)
(9.2735 -0.0518737 0)
(9.34091 -0.0505164 -1.42439e-17)
(9.40689 -0.0501965 -1.3849e-17)
(9.47228 -0.050412 -1.34924e-17)
(9.53757 -0.0508647 0)
(9.60302 -0.051382 1.28748e-17)
(9.66877 -0.0518713 0)
(9.73486 -0.0522902 -1.23585e-17)
(9.80131 -0.0526291 -1.21303e-17)
(9.86811 -0.0528985 0)
(9.93526 -0.0531233 0)
(10.0028 -0.0533374 0)
(10.0707 -0.0535824 -1.13659e-17)
(10.1391 -0.0539052 0)
(10.2081 -0.0543568 0)
(10.2778 -0.0549851 0)
(10.3484 -0.055826 0)
(10.4202 -0.0568699 0)
(10.4934 -0.0579382 0)
(10.568 -0.0586978 0)
(10.6438 -0.0590061 0)
(10.7204 -0.0590257 1.02027e-17)
(10.7979 -0.0589439 0)
(10.8761 -0.0588589 0)
(10.9553 -0.058828 -9.91411e-18)
(11.0354 -0.0588975 -9.82165e-18)
(11.1168 -0.0591188 0)
(11.1997 -0.0595436 9.64033e-18)
(11.2843 -0.0602257 -9.55102e-18)
(11.371 -0.0612137 0)
(11.4603 -0.0625383 9.37438e-18)
(11.5526 -0.0642226 0)
(11.6483 -0.06628 0)
(11.7478 -0.068691 -9.11407e-18)
(11.8512 -0.0715109 0)
(11.9592 -0.0750043 8.94545e-18)
(12.0725 -0.0794436 0)
(12.1917 -0.0845631 -8.78478e-18)
(12.3172 -0.0901145 -8.70948e-18)
(12.451 -0.09619 -8.63947e-18)
(12.5894 -0.103607 -1.71502e-17)
(12.7377 -0.113634 1.70256e-17)
(12.8961 -0.12647 0)
(13.0671 -0.141727 0)
(13.2498 -0.157769 0)
(13.4347 -0.164797 1.68174e-17)
(13.6273 -0.142711 1.69114e-17)
(13.7876 -0.0915077 -1.71054e-17)
(13.8541 -0.0458607 0)
(13.8781 -0.0226388 1.73224e-17)
(13.8898 -0.00579484 1.73014e-17)
(13.8685 0.0104377 1.72817e-17)
(13.8282 0.0185277 0)
(13.7803 0.0213009 0)
(13.7296 0.0233668 0)
(13.6756 0.0233104 1.68759e-17)
(13.6243 0.0184149 0)
(13.5814 0.0104156 0)
(13.5481 0.00227435 -1.65199e-17)
(13.5236 -0.00466064 0)
(13.5061 -0.00971401 0)
(13.4935 -0.0117643 -1.63545e-17)
(13.483 -0.0107409 0)
(13.4721 -0.00843552 0)
(13.4598 -0.00666097 1.63396e-17)
(13.4464 -0.00559695 1.63442e-17)
(13.4318 -0.004696 0)
(13.4157 -0.00385241 -1.63738e-17)
(13.3981 -0.00307102 0)
(13.3786 -0.00234239 1.64404e-17)
(13.3572 -0.00156234 0)
(13.3333 -0.000492852 1.65612e-17)
(13.3061 0.00115253 1.66475e-17)
(13.2745 0.00367704 0)
(13.2369 0.00744702 0)
(13.1913 0.0128521 0)
(13.1336 0.020589 0)
(13.0591 0.032597 0)
(12.9563 0.0490136 0)
(12.8222 0.0794751 0)
(12.6798 0.124569 1.78493e-17)
(12.1961 0.117031 -1.75858e-17)
(12.1395 0.0808775 0)
(11.9872 0.0602951 0)
(11.8267 0.054963 0)
(11.6626 0.0541226 0)
(11.5605 0.0405959 -3.23567e-17)
(11.4388 0.0313692 0)
(11.2761 0.0216565 3.27776e-17)
(11.428 0.0344423 -3.40235e-17)
(10.9605 0.0677561 0)
(10.9243 0.0713974 0)
(10.7633 0.0620236 0)
(10.5843 0.0589516 3.2258e-17)
(10.4508 0.0511605 3.20965e-17)
(10.3351 0.045372 0)
(10.2352 0.0396465 3.14552e-17)
(10.1449 0.0344436 3.10677e-17)
(10.0638 0.0301801 -3.06655e-17)
(9.98878 0.0268413 0)
(9.91815 0.0243264 0)
(9.85049 0.0223213 -2.94254e-17)
(9.78505 0.0206725 0)
(9.7206 0.0193177 0)
(9.65782 0.0180306 0)
(9.59609 0.0167225 0)
(9.53533 0.0155684 2.73015e-17)
(9.47503 0.0146374 2.68893e-17)
(9.41463 0.0139503 0)
(9.35337 0.0134549 2.61002e-17)
(9.29085 0.0130749 0)
(9.22651 0.0129478 0)
(9.15972 0.013052 2.50482e-17)
(9.08995 0.0133705 0)
(9.01659 0.0138978 2.44566e-17)
(8.93904 0.0146349 0)
(8.85669 0.0155886 0)
(8.76894 0.0167599 2.37689e-17)
(8.67525 0.0181365 0)
(8.57513 0.019692 2.34668e-17)
(8.46817 0.0213764 0)
(8.35426 0.0230901 0)
(8.23298 0.0244304 0)
(8.11037 0.0247635 -2.3296e-17)
(7.96003 0.0168619 0)
(7.8903 0.00339353 2.29698e-17)
(7.90334 -0.00063466 0)
(7.87875 0.0037069 0)
(7.84219 0.00831524 0)
(7.78872 0.0135468 0)
(7.71586 0.019531 0)
(7.61918 0.026699 0)
(7.49144 0.0361976 0)
(7.31594 0.0514471 -3.65571e-17)
(7.04941 0.0839762 0)
(6.50156 0.179982 0)
(0.152562 -0.78293 -8.90669e-17)
(0.514463 -1.24514 6.90989e-17)
(0.954395 -1.2985 0)
(1.32865 -1.22166 -3.02141e-17)
(1.65702 -1.13982 0)
(1.95206 -1.06716 -1.23862e-17)
(2.22402 -1.00218 2.33106e-17)
(2.4791 -0.943277 2.22743e-17)
(2.72164 -0.889311 0)
(2.95311 -0.838378 2.10146e-17)
(3.17448 -0.790987 1.0302e-17)
(3.3906 -0.746394 0)
(3.59733 -0.704711 0)
(3.79755 -0.666061 0)
(3.98761 -0.62878 0)
(4.16797 -0.590507 9.87128e-18)
(4.34166 -0.551711 0)
(4.50175 -0.513809 -1.90315e-17)
(4.64859 -0.477322 0)
(4.7897 -0.445186 0)
(4.92546 -0.419537 1.7718e-17)
(5.05714 -0.399743 0)
(5.18579 -0.38483 -1.69349e-17)
(5.31201 -0.373692 8.30628e-18)
(5.43582 -0.365043 -8.17475e-18)
(5.55656 -0.358012 8.05705e-18)
(5.67176 -0.352384 7.93053e-18)
(5.77996 -0.347758 0)
(5.88257 -0.343149 0)
(5.98159 -0.337253 -7.39597e-18)
(6.07772 -0.330447 7.24376e-18)
(6.17343 -0.325644 0)
(6.24892 -0.330741 0)
(6.31311 -0.361802 -6.73546e-18)
(6.33264 -0.3919 0)
(6.45607 -0.373652 0)
(6.38664 -0.375416 6.29856e-18)
(6.53055 -0.380797 0)
(6.46988 -0.316105 -5.93378e-18)
(6.55488 -0.261977 1.14855e-17)
(6.5921 -0.221291 0)
(6.65024 -0.188965 0)
(6.70522 -0.169648 2.08648e-17)
(6.761 -0.158103 2.02867e-17)
(6.81655 -0.151415 1.97585e-17)
(6.87195 -0.147732 -9.6409e-18)
(6.92718 -0.145857 9.41298e-18)
(6.98233 -0.145023 2.76353e-17)
(7.03751 -0.144748 -1.80512e-17)
(7.09281 -0.144736 -8.85036e-18)
(7.14832 -0.144813 0)
(7.20409 -0.144887 8.54279e-18)
(7.26019 -0.144919 -8.40927e-18)
(7.31668 -0.144906 0)
(7.37359 -0.144865 0)
(7.43096 -0.144831 0)
(7.48885 -0.144846 7.93748e-18)
(7.54728 -0.144963 0)
(7.60629 -0.145236 -1.54891e-17)
(7.66589 -0.145722 0)
(7.7261 -0.146464 -1.51415e-17)
(7.78691 -0.147477 0)
(7.84833 -0.148669 1.48304e-17)
(7.91047 -0.149846 0)
(7.97364 -0.150864 -1.45508e-17)
(8.03835 -0.15176 7.2111e-18)
(8.10472 -0.152644 0)
(8.17295 -0.153629 1.41746e-17)
(8.24323 -0.15481 7.02843e-18)
(8.31575 -0.156266 6.97233e-18)
(8.39073 -0.158073 0)
(8.46838 -0.160306 6.86667e-18)
(8.54896 -0.163041 6.81422e-18)
(8.63272 -0.166347 0)
(8.71991 -0.170233 -6.71595e-18)
(8.81072 -0.174698 1.33382e-17)
(8.90524 -0.179527 0)
(9.00312 -0.184427 6.57686e-18)
(9.10409 -0.189369 0)
(9.20778 -0.194478 -1.94667e-17)
(9.31346 -0.199885 0)
(9.41943 -0.205487 1.9209e-17)
(9.52547 -0.211112 6.35888e-18)
(9.63111 -0.216176 -6.31654e-18)
(9.73309 -0.220957 -1.25502e-17)
(9.83163 -0.225736 1.24636e-17)
(9.91995 -0.229747 0)
(9.99432 -0.232052 0)
(10.0501 -0.231457 0)
(10.0804 -0.224816 -3.61211e-17)
(10.1039 -0.201459 -1.18923e-17)
(10.1458 -0.153573 1.17832e-17)
(10.1994 -0.098026 0)
(10.2466 -0.0533625 1.17629e-17)
(10.2854 -0.0167721 -1.17679e-17)
(10.3148 0.0132074 -1.17709e-17)
(10.3299 0.0320091 0)
(10.3303 0.0422854 0)
(10.3221 0.0479092 0)
(10.3089 0.0480272 -1.16165e-17)
(10.2915 0.0413286 0)
(10.2726 0.0306731 2.29557e-17)
(10.2536 0.0193069 3.4215e-17)
(10.2367 0.00892463 -2.2672e-17)
(10.2222 0.000626211 0)
(10.2107 -0.0048655 -1.12162e-17)
(10.2028 -0.00757267 0)
(10.1981 -0.00847717 -2.22456e-17)
(10.196 -0.00872063 1.10815e-17)
(10.1959 -0.00878557 1.10458e-17)
(10.198 -0.00867402 0)
(10.2019 -0.00840835 3.29728e-17)
(10.2075 -0.00799572 -2.19393e-17)
(10.2147 -0.00739898 -1.09572e-17)
(10.2233 -0.00649145 0)
(10.2333 -0.00502929 -1.09498e-17)
(10.2446 -0.00271847 -3.28726e-17)
(10.2571 0.000784616 0)
(10.2708 0.00597264 -2.20144e-17)
(10.2852 0.0136634 -2.21022e-17)
(10.2995 0.0251067 -2.22198e-17)
(10.3124 0.0425703 0)
(10.3245 0.0691295 0)
(10.3132 0.116493 0)
(10.3749 0.197379 1.1467e-17)
(10.2474 0.20728 1.15169e-17)
(10.4148 0.145437 0)
(10.3113 0.110989 2.20576e-17)
(10.2714 0.0984124 2.24228e-17)
(10.203 0.0917802 0)
(10.2195 0.0839861 2.22055e-17)
(10.1463 0.0701677 4.51998e-17)
(10.1089 0.0355403 -2.22458e-17)
(10.2335 0.0832474 -2.28502e-17)
(9.77454 0.150025 0)
(10.0176 0.136366 0)
(9.90012 0.12351 0)
(9.83884 0.105953 -2.10267e-17)
(9.76656 0.0915503 2.10223e-17)
(9.70171 0.0806 4.20174e-17)
(9.64394 0.0707162 -2.09319e-17)
(9.58888 0.0621412 2.08112e-17)
(9.53666 0.055329 2.06482e-17)
(9.48604 0.0504304 0)
(9.43654 0.0469801 0)
(9.38794 0.0444066 -2.00183e-17)
(9.33997 0.0424149 0)
(9.29274 0.0404907 0)
(9.2478 0.0384392 3.84695e-17)
(9.20457 0.0364934 0)
(9.16337 0.0347873 1.866e-17)
(9.12418 0.0334524 -1.83651e-17)
(9.08691 0.0325007 0)
(9.05168 0.0318706 1.77719e-17)
(9.01844 0.0315109 0)
(8.98718 0.0314778 0)
(8.95795 0.0317605 -1.69098e-17)
(8.93077 0.0323414 3.32753e-17)
(8.90565 0.0332099 -1.63785e-17)
(8.88265 0.0343605 0)
(8.86185 0.0357944 0)
(8.8433 0.0375104 1.56766e-17)
(8.82697 0.0394968 0)
(8.81274 0.0417241 1.53018e-17)
(8.80046 0.0441252 0)
(8.78982 0.0465463 0)
(8.77998 0.0482909 0)
(8.77067 0.048333 1.48463e-17)
(8.75521 0.0415369 0)
(8.69396 0.0316515 -1.45477e-17)
(8.58859 0.0310243 0)
(8.47013 0.0381056 0)
(8.34455 0.0458933 2.72323e-17)
(8.21388 0.0550423 -2.67759e-17)
(8.07778 0.0660349 0)
(7.93407 0.0799612 0)
(7.77866 0.0993822 0)
(7.60266 0.13118 7.70578e-17)
(7.39054 0.196218 0)
(7.15806 0.362751 -5.14597e-17)
(0.169297 -1.48417 -3.3993e-20)
(0.532905 -2.14254 -8.40769e-17)
(0.933465 -2.09807 0)
(1.25145 -1.89211 5.08921e-17)
(1.51986 -1.71917 0)
(1.75406 -1.58478 0)
(1.96567 -1.47646 1.07608e-20)
(2.16203 -1.38605 -1.74852e-17)
(2.34703 -1.3073 -1.67806e-17)
(2.52182 -1.23632 -1.62505e-17)
(2.6906 -1.17162 0)
(2.85222 -1.1108 0)
(3.00704 -1.05301 1.54044e-17)
(3.157 -0.997336 3.04619e-17)
(3.30154 -0.942571 -3.00949e-17)
(3.43994 -0.888181 0)
(3.57405 -0.83492 -2.94573e-17)
(3.70519 -0.784016 1.45557e-17)
(3.83459 -0.737949 0)
(3.9613 -0.697929 -2.83985e-17)
(4.08436 -0.663862 -1.39885e-17)
(4.20293 -0.635274 2.75873e-17)
(4.3163 -0.611188 1.35817e-17)
(4.4237 -0.590009 0)
(4.52443 -0.569709 -2.6394e-17)
(4.61781 -0.548552 -2.59738e-17)
(4.70308 -0.526287 0)
(4.77923 -0.504339 -2.49288e-17)
(4.84611 -0.484107 0)
(4.90449 -0.465231 -2.36483e-17)
(4.95648 -0.446087 -1.15014e-17)
(5.00388 -0.425811 0)
(5.04462 -0.409183 0)
(5.07402 -0.40276 0)
(5.0872 -0.405477 0)
(5.09331 -0.392062 0)
(5.10574 -0.37952 0)
(5.09691 -0.365005 -1.84455e-17)
(5.10381 -0.334947 2.67747e-17)
(5.11095 -0.305873 0)
(5.12733 -0.275659 0)
(5.15038 -0.25357 0)
(5.17626 -0.237599 8.85523e-21)
(5.20341 -0.226459 -1.51161e-17)
(5.23121 -0.218853 -2.93794e-17)
(5.25931 -0.213817 2.85871e-17)
(5.28757 -0.210573 1.39327e-17)
(5.316 -0.208541 -1.35901e-17)
(5.34467 -0.207303 -6.50633e-21)
(5.37367 -0.206571 -1.30018e-17)
(5.40314 -0.206154 0)
(5.43318 -0.205934 -1.24925e-17)
(5.4639 -0.205847 -5.10046e-21)
(5.49537 -0.205862 0)
(5.52769 -0.205979 0)
(5.56092 -0.206213 1.16693e-17)
(5.59514 -0.206592 0)
(5.63041 -0.207153 0)
(5.66679 -0.207933 -1.11827e-17)
(5.70436 -0.208967 -2.20699e-17)
(5.74316 -0.210276 1.08963e-17)
(5.78324 -0.211864 0)
(5.82469 -0.213706 -1.06498e-17)
(5.86762 -0.215765 0)
(5.91212 -0.218044 -1.04373e-17)
(5.95843 -0.220572 -1.03323e-17)
(6.00672 -0.223381 2.04795e-17)
(6.05719 -0.226543 1.01516e-17)
(6.11001 -0.230124 0)
(6.16535 -0.234198 -1.99634e-17)
(6.22339 -0.238835 0)
(6.28432 -0.244115 -2.94874e-17)
(6.34832 -0.250127 -1.95183e-17)
(6.41564 -0.256983 -1.93841e-17)
(6.48649 -0.264568 1.92564e-17)
(6.56092 -0.272506 -2.87012e-17)
(6.63827 -0.280415 0)
(6.7185 -0.288161 0)
(6.80169 -0.295777 1.87947e-17)
(6.8881 -0.303157 2.80365e-17)
(6.97769 -0.31008 0)
(7.07005 -0.316431 -9.25455e-18)
(7.16535 -0.321849 0)
(7.2624 -0.325468 2.75422e-17)
(7.36075 -0.326682 -3.54143e-22)
(7.45818 -0.324618 -7.928e-23)
(7.55342 -0.318012 -1.82251e-17)
(7.64412 -0.305793 0)
(7.72797 -0.287435 1.81823e-17)
(7.8016 -0.264369 2.03654e-21)
(7.86221 -0.235607 0)
(7.91734 -0.196922 0)
(7.97659 -0.150409 0)
(8.03571 -0.103184 -1.82053e-17)
(8.08923 -0.0592511 0)
(8.136 -0.0210218 0)
(8.17326 0.00902894 0)
(8.20042 0.0300048 0)
(8.21992 0.0431565 0)
(8.23348 0.0491741 -1.8138e-17)
(8.2402 0.0483996 0)
(8.23799 0.0428757 -1.79734e-17)
(8.22873 0.034777 -1.78503e-17)
(8.21432 0.0258175 1.77183e-17)
(8.197 0.0174407 0)
(8.1786 0.0105623 1.7447e-17)
(8.16097 0.00556084 0)
(8.14527 0.00212082 1.71941e-17)
(8.1317 -0.000389538 -1.70776e-17)
(8.12002 -0.00240565 -5.0889e-17)
(8.11014 -0.00405398 0)
(8.10211 -0.00534156 -5.02498e-17)
(8.09587 -0.0063141 -1.66458e-17)
(8.09144 -0.00697983 0)
(8.08879 -0.00726419 -3.29509e-17)
(8.088 -0.00699052 -3.28049e-17)
(8.08916 -0.00591409 4.90301e-17)
(8.09244 -0.00372495 0)
(8.09801 2.22758e-05 1.62695e-17)
(8.10609 0.0060304 1.62568e-17)
(8.11701 0.0154469 4.87851e-17)
(8.13104 0.030419 0)
(8.15025 0.0545612 0)
(8.17296 0.0907199 0)
(8.2222 0.15107 1.65265e-17)
(8.28949 0.174904 0)
(8.28643 0.147669 0)
(8.30582 0.124092 -1.66442e-17)
(8.31322 0.111975 -1.68156e-17)
(8.30217 0.106553 0)
(8.30241 0.101595 0)
(8.28969 0.089823 -3.41133e-17)
(8.25266 0.0603175 0)
(8.23859 0.108591 3.44498e-17)
(8.28095 0.171958 3.54801e-17)
(8.1898 0.176608 0)
(8.14288 0.167229 0)
(8.10457 0.138514 -3.27419e-17)
(8.07264 0.119103 5.41066e-22)
(8.04728 0.105337 8.39969e-22)
(8.02301 0.0940529 0)
(7.99863 0.0847628 -6.46226e-17)
(7.97273 0.0778391 0)
(7.9448 0.073108 0)
(7.91537 0.0698843 0)
(7.8844 0.0675741 3.10067e-17)
(7.85194 0.065747 0)
(7.81843 0.0638182 -6.03618e-17)
(7.78304 0.0613871 -2.97334e-17)
(7.74758 0.0587255 0)
(7.71234 0.0562605 -2.87951e-17)
(7.67759 0.0541541 0)
(7.64339 0.0524299 0)
(7.60973 0.0510038 -8.1996e-17)
(7.57681 0.0498457 5.36859e-17)
(7.54479 0.0489563 0)
(7.51392 0.0483282 5.17636e-17)
(7.48443 0.0479528 -2.54179e-17)
(7.45652 0.0478085 0)
(7.43047 0.0478747 0)
(7.40657 0.0481474 0)
(7.38517 0.0486392 -7.11487e-17)
(7.3666 0.0493665 0)
(7.35115 0.050332 -2.30122e-17)
(7.33902 0.0515037 0)
(7.33027 0.0527556 0)
(7.32464 0.0533777 0)
(7.32203 0.0531308 0)
(7.31467 0.0556463 0)
(7.28515 0.0634599 0)
(7.23859 0.0728663 -4.19037e-17)
(7.18748 0.0816596 0)
(7.13188 0.0906514 -2.02825e-17)
(7.07328 0.101017 6.01437e-17)
(7.01105 0.113714 0)
(6.94342 0.130331 0)
(6.8679 0.154116 -3.93858e-17)
(6.78032 0.192717 -3.93932e-17)
(6.67875 0.265843 3.95224e-17)
(6.62807 0.421702 3.98859e-17)
(0.181736 -2.1983 1.66395e-16)
(0.540098 -2.98191 1.17661e-16)
(0.910035 -2.804 5.68267e-17)
(1.19293 -2.46237 2.27936e-17)
(1.4264 -2.19914 0)
(1.62652 -2.0052 -3.49326e-17)
(1.80499 -1.85615 1.60871e-17)
(1.9681 -1.73553 0)
(2.11833 -1.63227 1.43752e-17)
(2.26019 -1.54178 0)
(2.39373 -1.45907 -2.66971e-17)
(2.52112 -1.38325 0)
(2.64456 -1.31359 -1.27587e-17)
(2.76424 -1.24811 -2.51614e-17)
(2.88111 -1.18547 2.48969e-17)
(2.99645 -1.12541 0)
(3.11052 -1.06794 2.4507e-17)
(3.22333 -1.01329 0)
(3.33426 -0.961931 0)
(3.44221 -0.914183 2.39016e-17)
(3.5459 -0.870119 0)
(3.64405 -0.829411 2.17584e-20)
(3.7355 -0.791281 0)
(3.8193 -0.754537 0)
(3.89489 -0.717842 -2.03265e-20)
(3.96217 -0.680269 2.18711e-17)
(4.02139 -0.641938 2.14172e-17)
(4.07283 -0.604142 2.0875e-17)
(4.11663 -0.568441 0)
(4.15312 -0.535421 3.94766e-17)
(4.18309 -0.504478 0)
(4.20775 -0.475082 1.85629e-17)
(4.22776 -0.448522 0)
(4.24185 -0.427123 0)
(4.24837 -0.410393 -1.67439e-17)
(4.24852 -0.393474 0)
(4.24588 -0.374206 1.5581e-17)
(4.24064 -0.354782 -1.01908e-20)
(4.23624 -0.333235 -2.89493e-17)
(4.23445 -0.310481 2.79212e-17)
(4.23758 -0.290059 0)
(4.24431 -0.27367 0)
(4.253 -0.261038 1.2596e-17)
(4.2628 -0.251587 0)
(4.27334 -0.244758 1.18248e-17)
(4.2844 -0.240024 -1.14917e-17)
(4.2959 -0.23691 -1.11847e-17)
(4.30782 -0.235012 0)
(4.3202 -0.234006 1.06402e-17)
(4.3331 -0.233643 1.03984e-17)
(4.3466 -0.23374 -2.03609e-17)
(4.3608 -0.234171 9.96642e-18)
(4.37577 -0.234857 9.77291e-18)
(4.39159 -0.235753 0)
(4.40835 -0.236846 0)
(4.4261 -0.238141 -9.2662e-18)
(4.44493 -0.239659 0)
(4.46489 -0.241429 0)
(4.48605 -0.243487 1.76984e-17)
(4.50845 -0.245864 1.74534e-17)
(4.53216 -0.248583 0)
(4.55723 -0.251652 0)
(4.58372 -0.25506 0)
(4.61172 -0.258792 0)
(4.64133 -0.262859 1.64322e-17)
(4.67264 -0.267299 -1.62671e-17)
(4.70578 -0.272169 -1.61004e-17)
(4.74086 -0.277535 -3.18992e-17)
(4.778 -0.283461 0)
(4.81732 -0.290015 -4.21466e-21)
(4.85894 -0.297269 0)
(4.90297 -0.305301 1.54091e-17)
(4.94948 -0.314225 -3.56965e-21)
(4.99878 -0.324121 1.51809e-17)
(5.0506 -0.334639 -1.50762e-17)
(5.10478 -0.345226 -2.97839e-21)
(5.16138 -0.355705 0)
(5.2209 -0.366114 -1.4783e-17)
(5.28331 -0.376478 -1.46924e-17)
(5.34858 -0.386673 -2.92269e-17)
(5.41678 -0.396373 0)
(5.48778 -0.405231 1.44807e-17)
(5.56117 -0.412727 0)
(5.63683 -0.418054 -2.8773e-17)
(5.71441 -0.420223 1.43562e-17)
(5.79356 -0.418148 -1.43383e-17)
(5.87371 -0.410632 1.43327e-17)
(5.95436 -0.396446 2.8678e-17)
(6.03506 -0.374695 -1.43594e-17)
(6.1151 -0.345258 1.43918e-17)
(6.1934 -0.308762 0)
(6.26994 -0.26579 -2.89758e-17)
(6.34573 -0.217705 0)
(6.42109 -0.167776 -2.92505e-17)
(6.49526 -0.119297 2.94114e-17)
(6.56647 -0.0749252 2.95756e-17)
(6.63233 -0.037239 -2.97122e-17)
(6.69114 -0.00778306 -2.97919e-17)
(6.74075 0.0134068 0)
(6.78287 0.0273707 -1.49233e-17)
(6.81484 0.0355151 0)
(6.83644 0.0387998 0)
(6.84902 0.0382365 -2.96269e-17)
(6.85333 0.0351303 0)
(6.85107 0.0306648 0)
(6.84387 0.0259273 -2.90794e-17)
(6.83348 0.0215675 0)
(6.82134 0.0178623 0)
(6.8083 0.0147776 0)
(6.7948 0.0121077 5.64186e-17)
(6.7812 0.00969591 0)