/*--------------------------------*- C++ -*----------------------------------*\
  =========                 |
  \\      /  F ield         | OpenFOAM: The Open Source CFD Toolbox
   \\    /   O peration     | Website:  https://openfoam.org
    \\  /    A nd           | Version:  9
     \\/     M anipulation  |
\*---------------------------------------------------------------------------*/
FoamFile
{
    format      ascii;
    class       volScalarField;
    location    "0.06";
    object      epsilon;
}
// * * * * * * * * * * * * * * * * * * * * * * * * * * * * * * * * * * * * * //

dimensions      [0 2 -3 0 0 0 0];

internalField   nonuniform List<scalar> 
12225
(
209.621
126.181
81.6209
58.195
45.5028
38.0475
33.1128
29.437
26.4601
23.9298
21.7216
19.7695
18.0467
16.5791
15.5207
15.731
23.3119
95.0375
61.6812
54.9069
42.1117
33.2334
27.4883
23.6219
20.8741
18.7919
17.1132
15.6886
14.4277
13.2703
12.1748
11.1193
10.1324
9.74547
14.2217
55.0717
31.5499
33.2081
28.7884
24.3085
20.7911
18.1519
16.1622
14.6221
13.3886
12.3676
11.4949
10.7228
10.0132
9.34158
8.75505
8.89513
14.0101
46.5939
21.8845
23.8702
22.1719
19.6723
17.3441
15.4063
13.8474
12.5963
11.5815
10.7466
10.0493
9.45607
8.94098
8.49499
8.20821
8.80988
14.3052
41.5573
17.8443
19.0999
18.312
16.7821
15.1607
13.6903
12.4348
11.3869
10.5181
9.79875
9.20334
8.71163
8.31042
8.00959
7.93698
8.84198
14.2303
36.7155
15.8964
16.4206
15.8883
14.8344
13.6377
12.4858
11.4547
10.5633
9.80682
9.17264
8.64803
8.22317
7.89607
7.69283
7.76466
8.82092
13.752
31.8182
14.8863
14.8366
14.3103
13.4763
12.529
11.5908
10.7245
9.9552
9.28867
8.72249
8.25234
7.87611
7.60038
7.46264
7.62183
8.70763
12.9915
27.1045
14.3444
13.8774
13.2673
12.518
11.7094
10.9096
10.161
9.48501
8.89039
8.3795
7.95308
7.61413
7.37496
7.2792
7.48054
8.50975
12.0817
22.8174
14.0498
13.2931
12.5774
11.8428
11.1039
10.3889
9.72083
9.11381
8.57518
8.10871
7.71753
7.40753
7.19415
7.12253
7.33206
8.25127
11.1311
19.1042
13.8896
12.9395
12.1257
11.3726
10.6614
9.99415
9.37828
8.81993
8.32329
7.89145
7.5281
7.24025
7.04429
6.98326
7.17721
7.95966
10.2164
16.0146
13.8029
12.7288
11.8353
11.0516
10.3443
9.7003
9.1157
8.58984
8.12324
7.71732
7.37518
7.10365
6.91842
6.85803
7.02138
7.65995
9.38529
13.528
13.7602
12.6159
11.6684
10.856
10.1416
9.50498
8.93571
8.42834
7.98037
7.59138
7.26336
7.00221
6.82194
6.75572
6.88364
7.3957
8.72178
11.7415
13.7358
12.5468
11.56
10.7223
9.99705
9.36077
8.79895
8.30282
7.86734
7.49035
7.17249
6.91833
6.73959
6.66345
6.75213
7.14374
8.12871
10.2631
13.7211
12.5029
11.4869
10.6271
9.88944
9.24934
8.69013
8.20066
7.77383
7.40574
7.09552
6.84602
6.66605
6.57616
6.62127
6.89494
7.58031
9.00451
13.7133
12.4782
11.4434
10.5675
9.81887
9.17346
8.61382
8.12748
7.70587
7.34366
7.03845
6.79116
6.60741
6.5011
6.50173
6.66756
7.10525
7.99279
13.7096
12.4663
11.4215
10.5362
9.78037
9.13086
8.57018
8.08532
7.66685
7.30835
7.00608
6.75904
6.56974
6.44608
6.40511
6.47931
6.72506
7.23084
13.7081
12.4615
11.4128
10.5239
9.76546
9.11483
8.55466
8.07172
7.65608
7.30051
7.00015
6.75238
6.55699
6.41708
6.34059
6.34293
6.4501
6.70118
13.7073
12.4599
11.4109
10.5224
9.76533
9.11698
8.55993
8.08068
7.66888
7.31666
7.01827
6.76974
6.56886
6.4153
6.31114
6.26167
6.27632
6.36927
13.7066
12.4596
11.4126
10.5275
9.77481
9.13166
8.58016
8.10637
7.69946
7.35101
7.05457
6.80526
6.59951
6.43496
6.31045
6.22612
6.18353
6.18578
13.707
12.4628
11.4208
10.5423
9.79665
9.16012
8.61427
8.14482
7.7407
7.39332
7.09601
6.84357
6.63199
6.45817
6.31984
6.21542
6.14402
6.1054
13.7107
12.4759
11.4462
10.5799
9.84441
9.21499
8.67306
8.20461
7.79901
7.44808
7.14547
6.88613
6.66604
6.48192
6.3311
6.21144
6.1212
6.05919
13.7246
12.5188
11.5193
10.6772
9.95678
9.33358
8.79067
8.31601
7.90075
7.53808
7.22256
6.94969
6.71567
6.51724
6.35159
6.21628
6.10928
6.02907
13.7679
12.6382
11.7034
10.9009
10.1956
9.56915
9.01103
8.51458
8.07471
7.68696
7.3472
7.05154
6.79633
6.57819
6.39403
6.24106
6.11692
6.01994
13.89
12.935
12.1152
11.3589
10.6494
9.98997
9.38552
8.83908
8.35094
7.91923
7.5407
7.2114
6.92718
6.68394
6.47784
6.30539
6.16365
6.05065
14.2112
13.6077
12.9477
12.2069
11.4349
10.6787
9.97223
9.33218
8.76345
8.26477
7.83166
7.45829
7.13854
6.86653
6.63686
6.4448
6.2864
6.15913
15.0217
15.0463
14.5276
13.6764
12.7051
11.7415
10.8488
10.0554
9.367
8.77693
8.27484
7.84968
7.49107
7.18981
6.93795
6.72884
6.5571
6.41927
17.0598
18.0741
17.4563
16.1613
14.7189
13.3574
12.1591
11.1379
10.2862
9.5815
8.9996
8.51933
8.12297
7.79615
7.52732
7.30726
7.1288
6.98713
22.5714
24.7261
23.0377
20.4842
18.0435
15.9688
14.2845
12.9404
11.8714
11.0271
10.3569
9.82204
9.39362
9.04986
8.77446
8.55507
8.38239
8.24984
40.8652
41.2567
34.9786
29.0953
24.5342
21.1258
18.6093
16.7467
15.3503
14.3103
13.528
12.9335
12.4791
12.132
11.8691
11.674
11.5347
11.4424
135.89
96.9946
71.5955
54.9794
44.0801
36.8857
32.0683
28.7639
26.4449
24.8302
23.6731
22.8295
22.2126
21.7671
21.4561
21.2536
21.1403
21.1006
27.8623
8.563
37.5282
41.0954
43.3856
44.3203
44.1795
43.2203
41.6455
39.7302
38.3895
8.91058
8.88644
38.0777
39.9806
43.4307
48.5377
54.8782
61.3664
66.9011
70.7081
72.7961
75.6166
81.8658
91.7648
105.048
121.002
138.788
157.65
176.981
196.329
215.365
233.869
251.696
268.762
285.022
300.466
315.103
328.958
342.067
354.474
366.23
377.397
388.041
398.246
408.107
417.745
427.313
436.662
445.467
453.766
461.583
468.919
475.764
482.098
487.899
493.138
497.788
501.818
505.196
507.892
509.873
511.109
511.572
511.234
510.072
508.064
505.191
501.441
496.803
491.272
484.849
477.538
469.35
460.301
450.414
439.718
428.253
416.076
403.282
390.082
377.324
367.827
361.88
356.222
350.253
343.818
336.885
329.468
321.599
313.321
304.682
295.732
286.52
277.093
267.492
257.753
247.903
237.962
227.934
217.802
207.524
196.977
185.924
174.643
163.186
151.233
138.614
125.284
111.341
97.0584
82.9487
69.7374
58.5093
53.9196
12.1127
51.6626
12.1357
11.4329
10.2205
8.74426
7.25101
5.92792
4.8785
4.12263
3.62091
3.30954
3.12725
3.02704
2.97704
2.95705
2.9547
2.96249
2.97585
2.99195
3.00901
3.02588
3.04193
3.05686
3.07063
3.08339
3.09546
3.10663
3.11608
3.12381
3.12998
3.13471
3.13811
3.14028
3.14136
3.14152
3.14099
3.13995
3.13861
3.13712
3.13559
3.13406
3.13251
3.13088
3.12908
3.12708
3.12491
3.12265
3.12043
3.11833
3.11644
3.11475
3.11324
3.11177
3.11018
3.10853
3.10691
3.10503
3.10279
3.10022
3.09751
3.09504
3.09337
3.09162
3.08525
49.0808
37.4802
34.704
32.6273
30.9378
29.5939
28.6038
28.011
27.9099
28.5239
29.9914
31.6048
35.5015
42.7002
51.4496
62.8351
77.557
94.8231
111.847
127.627
141.078
151.418
158.475
162.632
164.528
164.878
164.268
163.122
161.736
160.317
159.003
157.878
156.987
156.348
155.96
155.81
155.881
156.155
156.614
157.244
158.035
158.983
160.093
161.378
162.861
164.579
166.584
168.946
171.651
174.37
177.06
179.711
182.309
184.844
187.301
189.668
191.93
194.071
196.076
197.928
199.61
201.105
202.396
203.467
204.3
204.88
205.191
205.219
204.951
204.373
203.477
202.253
200.693
198.794
196.552
193.966
191.042
187.785
184.214
180.36
176.284
172.12
168.061
164.455
160.922
157.283
153.485
149.52
145.397
141.136
136.76
132.294
127.764
123.194
118.609
114.029
109.476
104.964
100.507
96.1171
91.7992
87.5545
83.3774
79.2848
75.5396
72.3317
69.3542
66.4903
63.672
60.8626
58.043
55.1896
52.2391
49.0817
45.4709
39.6258
35.4606
27.7726
21.7052
16.7114
12.6679
9.49817
7.09749
5.34684
4.12263
3.30257
2.77467
2.44579
2.24557
2.12528
2.05347
2.01086
1.98596
1.97198
1.96482
1.96195
1.96176
1.96323
1.96573
1.96887
1.97242
1.97628
1.98025
1.9838
1.98679
1.98921
1.99106
1.99236
1.99315
1.99346
1.99336
1.99293
1.99224
1.99137
1.99039
1.98934
1.98824
1.98708
1.98586
1.98453
1.98311
1.98162
1.98008
1.97856
1.9771
1.97575
1.97451
1.97338
1.97234
1.97135
1.97055
1.97
1.96964
1.9695
1.96967
1.9704
1.97218
1.97631
1.98468
2.0108
71.2222
50.6929
43.2164
39.1182
36.523
34.9076
34.1658
34.4094
35.949
38.9302
43.576
50.4027
60.4454
73.5333
89.2175
106.63
124.253
140.073
152.156
159.496
162.039
160.55
156.281
150.531
144.336
138.377
133.016
128.396
124.539
121.4
118.908
116.975
115.515
114.449
113.709
113.24
113.004
112.972
113.127
113.46
113.967
114.646
115.499
116.526
117.728
119.106
120.658
122.389
124.22
126.109
128.037
129.994
131.968
133.948
135.923
137.879
139.805
141.684
143.504
145.248
146.901
148.447
149.87
151.154
152.282
153.239
154.009
154.578
154.933
155.059
154.946
154.583
153.961
153.074
151.914
150.48
148.77
146.786
144.534
142.027
139.283
136.326
133.159
129.988
126.791
123.498
120.087
116.559
112.928
109.212
105.434
101.618
97.787
93.9642
90.1712
86.4277
82.7514
79.1575
75.6587
72.2654
68.9855
65.8246
62.787
59.8839
57.1608
54.7026
52.4724
50.4183
48.4881
46.6378
44.8422
43.1058
41.455
39.9
38.3084
36.2714
33.6478
29.7763
25.1515
20.2921
15.726
11.8172
8.71279
6.39361
4.74914
3.63492
2.90879
2.45016
2.16692
1.99428
1.88961
1.82619
1.78789
1.76503
1.75185
1.74479
1.74165
1.741
1.74192
1.74382
1.74628
1.74905
1.75191
1.75454
1.75681
1.75868
1.76013
1.76117
1.76182
1.7621
1.76206
1.76173
1.76117
1.76044
1.75957
1.7586
1.75755
1.75645
1.75529
1.75407
1.7528
1.75149
1.75017
1.74887
1.74762
1.74645
1.7454
1.74447
1.74368
1.74303
1.74261
1.74248
1.74266
1.74322
1.74428
1.74606
1.749
1.75416
1.76324
1.78309
92.778
62.6419
53.028
48.4998
46.0998
45.1101
45.519
47.7343
51.8339
57.866
66.169
76.9674
90.1996
105.181
120.642
134.89
146.142
153.015
154.978
152.513
146.836
139.423
131.576
124.194
117.75
112.395
108.085
104.691
102.058
100.039
98.5079
97.3611
96.5158
95.9097
95.4984
95.253
95.1566
95.2013
95.3847
95.7077
96.1721
96.7796
97.5306
98.4242
99.4572
100.624
101.918
103.33
104.829
106.4
108.031
109.712
111.434
113.186
114.957
116.734
118.505
120.257
121.974
123.642
125.247
126.772
128.201
129.518
130.708
131.755
132.644
133.36
133.89
134.221
134.341
134.241
133.911
133.344
132.533
131.474
130.165
128.604
126.793
124.735
122.431
119.881
117.065
114.126
111.113
107.999
104.78
101.464
98.0661
94.6075
91.1109
87.6001
84.0986
80.6292
77.2132
73.8696
70.6155
67.4654
64.4311
61.5225
58.7468
56.1093
53.6133
51.2629
49.0695
47.0563
45.2204
43.5355
41.9712
40.4943
39.0771
37.7085
36.4018
35.1854
34.0421
32.8287
31.2748
28.987
25.8225
21.9427
17.7629
13.7657
10.3154
7.58111
5.56255
4.15677
3.2225
2.62335
2.24856
2.01766
1.87642
1.79023
1.73772
1.70597
1.68717
1.67658
1.67123
1.66922
1.66933
1.67073
1.67286
1.67536
1.67796
1.6804
1.68255
1.68436
1.6858
1.68686
1.68757
1.68793
1.68798
1.68776
1.68729
1.68662
1.6858
1.68485
1.68381
1.6827
1.68154
1.68033
1.6791
1.67785
1.67659
1.67536
1.67419
1.67309
1.6721
1.67125
1.67057
1.67008
1.66985
1.66994
1.67041
1.67133
1.67282
1.67509
1.67849
1.68384
1.69226
1.70671
114.903
76.6186
65.8545
61.5264
59.8794
60.1106
62.2757
66.2941
72.0615
79.7892
89.4487
100.681
112.728
124.431
134.391
141.282
144.228
143.09
138.516
131.69
123.924
116.294
109.476
103.766
99.1882
95.6196
92.8852
90.8093
89.2393
88.0516
87.1502
86.4638
85.942
85.5519
85.2746
85.1015
85.0312
85.0666
85.2123
85.4734
85.8539
86.3563
86.9814
87.7279
88.593
89.5719
90.6588
91.8458
93.1191
94.4685
95.8853
97.361
98.8862
100.451
102.045
103.656
105.272
106.88
108.466
110.017
111.516
112.949
114.3
115.554
116.696
117.71
118.582
119.299
119.846
120.213
120.388
120.361
120.124
119.67
118.993
118.089
116.954
115.586
113.984
112.146
110.07
107.748
105.163
102.427
99.5982
96.6671
93.6374
90.5213
87.337
84.1059
80.8514
77.5978
74.3691
71.1882
68.0763
65.0522
62.1325
59.3308
56.6583
54.1234
51.7325
49.4892
47.3952
45.4508
43.6567
42.0142
40.5198
39.1508
37.8844
36.6928
35.5498
34.4386
33.3587
32.3264
31.3524
30.3904
29.2769
27.7261
25.477
22.4575
18.8687
15.1113
11.6086
8.65597
6.37008
4.72039
3.59443
2.85739
2.38864
2.09573
1.91436
1.80244
1.7335
1.69123
1.66568
1.65072
1.64255
1.63875
1.63773
1.63844
1.64016
1.64241
1.64483
1.64719
1.64932
1.65116
1.65266
1.65381
1.65461
1.65508
1.65525
1.65512
1.65475
1.65416
1.65339
1.65248
1.65146
1.65037
1.64922
1.64803
1.64683
1.64561
1.64441
1.64323
1.6421
1.64105
1.64011
1.6393
1.63868
1.63829
1.63817
1.63839
1.639
1.6401
1.64179
1.64424
1.64774
1.65286
1.66025
1.67101
137.416
93.1604
81.852
78.0547
77.3313
78.7281
81.7011
86.0045
91.7972
98.9908
107.188
115.678
123.502
129.612
133.099
133.451
130.725
125.537
118.863
111.732
104.964
99.054
94.1884
90.3428
87.3828
85.1381
83.4449
82.1636
81.1831
80.4193
79.8117
79.319
78.9157
78.5886
78.3332
78.151
78.0472
78.0285
78.1016
78.2726
78.5462
78.9255
79.4119
80.0051
80.7032
81.5032
82.4007
83.3899
84.4623
85.6105
86.8273
88.105
89.4351
90.8084
92.2149
93.6437
95.0832
96.5211
97.9443
99.339
100.691
101.986
103.21
104.346
105.382
106.302
107.094
107.743
108.238
108.568
108.723
108.694
108.473
108.054
107.432
106.603
105.563
104.31
102.84
101.151
99.2391
97.0947
94.7035
92.1681
89.5329
86.796
83.9657
81.0566
78.088
75.0823
72.0637
69.057
66.0869
63.1768
60.3481
57.6197
55.0076
52.5248
50.1812
47.9841
45.9379
44.0446
42.304
40.7132
39.268
37.9618
36.7842
35.7139
34.7286
33.8016
32.9063
32.0224
31.1416
30.2705
29.4216
28.5823
27.6629
26.4675
24.75
22.3466
19.3046
15.9005
12.5232
9.5169
7.08078
5.25603
3.97277
3.11222
2.55382
2.1988
1.97549
1.83566
1.74821
1.69365
1.65988
1.63939
1.62748
1.62113
1.61839
1.61795
1.61891
1.62065
1.62274
1.6249
1.62694
1.62874
1.63025
1.63145
1.63232
1.63287
1.63312
1.63308
1.63279
1.63228
1.63157
1.63071
1.62973
1.62867
1.62755
1.6264
1.62523
1.62407
1.62292
1.62179
1.62071
1.61971
1.61881
1.61805
1.61748
1.61714
1.61708
1.61736
1.61804
1.61919
1.62092
1.62336
1.62672
1.6314
1.63769
1.6459
157.493
110.271
99.3882
96.402
96.4433
97.8266
100.123
103.411
107.618
112.446
117.352
121.619
124.493
125.363
123.938
120.339
115.076
108.891
102.549
96.6478
91.5444
87.3634
84.0678
81.5349
79.6144
78.1618
77.0533
76.1906
75.4997
74.9275
74.4386
74.0113
73.6347
73.3058
73.0268
72.8033
72.6426
72.5523
72.5398
72.6112
72.7715
73.024
73.3709
73.8126
74.3486
74.9769
75.6946
76.4969
77.3778
78.3314
79.3516
80.4314
81.5633
82.739
83.9493
85.1842
86.433
87.6841
88.9255
90.1443
91.3272
92.4608
93.5312
94.5246
95.4274
96.2263
96.9086
97.4625
97.8767
98.1414
98.2476
98.1876
97.9547
97.5435
96.9493
96.1683
95.197
94.0325
92.6715
91.1101
89.3428
87.3618
85.1539
82.8194
80.3814
77.8425
75.2131
72.5092
69.751
66.9618
64.1665
61.3914
58.6619
56.0027
53.4358
50.9804
48.6524
46.4641
44.4243
42.5386
40.8096
39.2372
37.8189
36.5492
35.4204
34.4218
33.5384
32.7487
32.0286
31.3505
30.6866
30.0137
29.3179
28.5987
27.8648
27.1154
26.3013
25.2908
23.8835
21.8981
19.2977
16.253
13.0866
10.1395
7.65355
5.72508
4.32742
3.36576
2.72779
2.31416
2.04928
1.88051
1.7731
1.70476
1.66143
1.63424
1.6176
1.60788
1.60274
1.60058
1.60031
1.60118
1.60267
1.60441
1.60616
1.60779
1.60919
1.61033
1.61117
1.61173
1.612
1.612
1.61175
1.61128
1.61062
1.6098
1.60886
1.60783
1.60675
1.60563
1.60451
1.60339
1.60229
1.60122
1.6002
1.59924
1.59839
1.59767
1.59713
1.59682
1.59678
1.59706
1.59774
1.59886
1.60052
1.60282
1.6059
1.61003
1.61527
1.62162
170.402
126.02
116.833
114.578
114.031
114.278
115.153
116.528
118.192
119.803
120.902
121.001
119.713
116.876
112.616
107.322
101.537
95.8081
90.5616
86.0485
82.3506
79.4274
77.1717
75.4526
74.1432
73.1336
72.3355
71.6817
71.1241
70.6299
70.1792
69.7615
69.3736
69.0174
68.6979
68.4222
68.1978
68.0325
67.9331
67.9059
67.9556
68.086
68.2995
68.5974
68.9799
69.4461
69.9941
70.62
71.3188
72.0857
72.9152
73.8015
74.7379
75.7169
76.7304
77.7694
78.8242
79.8844
80.9389
81.976
82.9836
83.9492
84.8601
85.7035
86.4669
87.1381
87.7056
88.1584
88.4865
88.6812
88.7344
88.6396
88.391
87.9838
87.414
86.6781
85.7727
84.6944
83.4393
82.0025
80.3777
78.557
76.5319
74.3967
72.1533
69.8074
67.3706
64.8595
62.295
59.7014
57.1051
54.5337
52.015
49.5749
47.2371
45.0217
42.9448
41.0183
39.25
37.6438
36.2004
34.9173
33.7894
32.8088
31.9647
31.2434
30.6277
30.0945
29.6174
29.1675
28.7155
28.2357
27.7102
27.133
26.5083
25.8386
25.0965
24.193
22.9725
21.2686
19.0069
16.2852
13.3582
10.5378
8.07768
6.10866
4.64041
3.60397
2.90042
2.43467
2.1306
1.93321
1.80519
1.72207
1.6681
1.6332
1.61092
1.59705
1.58882
1.58436
1.58237
1.58197
1.58251
1.58355
1.58479
1.58603
1.58716
1.58809
1.58879
1.58923
1.58943
1.58938
1.5891
1.58862
1.58796
1.58715
1.58622
1.5852
1.58414
1.58305
1.58196
1.58087
1.57981
1.57878
1.5778
1.57689
1.57607
1.57538
1.57486
1.57455
1.5745
1.57475
1.57537
1.5764
1.57791
1.57998
1.5827
1.58623
1.59052
1.59547
163.518
140.585
133.964
130.192
128.021
126.713
125.781
124.895
123.791
122.214
119.919
116.723
112.576
107.607
102.109
96.4704
91.0726
86.2113
82.0541
78.646
75.9409
73.8413
72.2305
70.9944
70.033
69.2646
68.6264
68.0723
67.5707
67.1016
66.6538
66.2231
65.8103
65.4192
65.056
64.7277
64.4418
64.2053
64.025
63.9065
63.8545
63.8728
63.9641
64.1301
64.3717
64.6889
65.0805
65.5434
66.073
66.665
67.315
68.0176
68.7674
69.5577
70.3816
71.2311
72.0978
72.9725
73.8452
74.7057
75.5429
76.3456
77.1024
77.8018
78.4322
78.9828
79.4429
79.8028
80.0536
80.1873
80.197
80.077
79.8224
79.4289
78.8931
78.2115
77.3806
76.3964
75.2541
73.9474
72.4683
70.8062
68.9739
67.03
64.973
62.8086
60.5483
58.2091
55.8124
53.3836
50.9512
48.5453
46.1961
43.9324
41.7803
39.7615
37.893
36.1866
34.6492
33.2833
32.0872
31.0562
30.1823
29.4549
28.8607
28.3832
28.0037
27.6975
27.4359
27.1882
26.9239
26.6152
26.2417
25.7931
25.2695
24.6735
23.9891
23.1553
22.0535
20.542
18.537
16.0909
13.402
10.7433
8.36067
6.40168
4.90254
3.81803
3.06484
2.55554
2.2163
1.9918
1.84336
1.74501
1.6797
1.63633
1.60766
1.58894
1.57701
1.5697
1.56553
1.56343
1.56267
1.5627
1.56316
1.5638
1.56445
1.565
1.56539
1.56559
1.56559
1.56539
1.565
1.56443
1.5637
1.56284
1.56188
1.56084
1.55977
1.55867
1.55758
1.55651
1.55546
1.55446
1.5535
1.55261
1.55181
1.55113
1.55061
1.55028
1.55019
1.55038
1.5509
1.55179
1.5531
1.55488
1.5572
1.56014
1.56359
1.56745
148.929
178.964
153.212
142.692
137.86
134.811
132.08
129.059
125.489
121.275
116.415
110.991
105.178
99.23
93.436
88.0652
83.3142
79.2842
75.9851
73.3595
71.3115
69.7313
68.5117
67.5582
66.7926
66.1537
65.5957
65.0865
64.6046
64.1375
63.6794
63.2291
62.7893
62.3646
61.9613
61.5861
61.2459
60.9471
60.6959
60.4974
60.3562
60.2759
60.2594
60.3087
60.4251
60.609
60.8604
61.1762
61.5522
61.9847
62.4697
63.0029
63.5795
64.194
64.8406
65.5126
66.2028
66.9033
67.6055
68.3006
68.9791
69.6309
70.246
70.8142
71.3253
71.7693
72.1369
72.4194
72.6086
72.6976
72.6804
72.5517
72.3075
71.9438
71.4575
70.845
70.1024
69.2248
68.2061
67.0383
65.7112
64.2126
62.5736
60.8139
58.9322
56.934
54.8299
52.6367
50.3764
48.0759
45.7663
43.4808
41.2535
39.117
37.1006
35.2288
33.5201
31.9868
30.635
29.4655
28.4745
27.6546
26.995
26.4822
26.1003
25.8305
25.6527
25.5405
25.463
25.388
25.2837
25.1212
24.8781
24.5413
24.1075
23.5782
22.9436
22.1607
21.1395
19.7643
17.9558
15.7411
13.2752
10.7922
8.51941
6.60796
5.11105
4.00314
3.21651
2.67325
2.30405
2.05492
1.887
1.77352
1.69656
1.6442
1.60859
1.58448
1.56832
1.55768
1.55087
1.5467
1.54429
1.54301
1.54242
1.54221
1.54217
1.54215
1.54207
1.54189
1.54157
1.5411
1.54049
1.53973
1.53886
1.53789
1.53684
1.53573
1.5346
1.53347
1.53235
1.53125
1.5302
1.52919
1.52823
1.52734
1.52654
1.52585
1.5253
1.52494
1.52478
1.52488
1.52527
1.52599
1.52707
1.52855
1.53046
1.53284
1.53556
1.53855
162.291
164.09
153.628
146.695
142.229
138.473
134.481
129.834
124.429
118.358
111.83
105.117
98.5097
92.2791
86.641
81.7327
77.6062
74.2398
71.5597
69.4635
67.8404
66.5841
65.601
64.8129
64.1577
63.5881
63.0699
62.5796
62.1021
61.6295
61.1586
60.6902
60.2274
59.7752
59.3394
58.9261
58.5416
58.1918
57.882
57.6171
57.4011
57.2377
57.1294
57.0787
57.0868
57.1548
57.283
57.4691
57.7088
57.9987
58.3353
58.7151
59.1342
59.5883
60.0725
60.5816
61.1095
61.65
62.1959
62.7399
63.2739
63.7896
64.2783
64.7311
65.1391
65.4936
65.7863
66.0092
66.1553
66.2183
66.1928
66.0742
65.8585
65.5425
65.1225
64.5951
63.9554
63.1976
62.3137
61.2934
60.1239
58.8
57.348
55.7634
54.0448
52.1958
50.2261
48.1514
45.9945
43.7841
41.5542
39.3426
37.1879
35.1279
33.1964
31.4212
29.8232
28.4154
27.2035
26.1865
25.3582
24.7083
24.2231
23.886
23.6785
23.5797
23.5681
23.6156
23.6893
23.7556
23.7821
23.7392
23.6032
23.3593
23.0018
22.5307
21.9396
21.1972
20.2354
18.9616
17.3072
15.2872
13.0249
10.7192
8.57431
6.73643
5.26768
4.1576
3.35271
2.7853
2.39195
2.12137
1.9355
1.80748
1.71891
1.65735
1.61444
1.58451
1.5637
1.54933
1.53952
1.5329
1.52851
1.52563
1.52373
1.52243
1.52149
1.52072
1.52001
1.51929
1.51852
1.51767
1.51673
1.51572
1.51462
1.51347
1.51227
1.51104
1.50981
1.50859
1.5074
1.50626
1.50516
1.50411
1.50313
1.50222
1.50139
1.50068
1.50009
1.49966
1.49942
1.49942
1.49967
1.5002
1.50104
1.50221
1.50372
1.50559
1.5077
1.50997
176.538
156.578
150.517
146.133
142.38
138.418
133.727
128.098
121.588
114.446
107.035
99.7377
92.8927
86.7449
81.431
76.9873
73.3728
70.4972
68.2466
66.5021
65.152
64.0984
63.2594
62.5695
61.9779
61.4468
60.9493
60.4675
59.9904
59.5125
59.0323
58.5511
58.0725
57.601
57.1419
56.7009
56.2834
55.8947
55.5396
55.2223
54.9465
54.7155
54.5319
54.3978
54.3149
54.2842
54.3065
54.38
54.5004
54.6645
54.8695
55.1125
55.3903
55.6998
56.0371
56.3984
56.7791
57.1743
57.5787
57.9863
58.3908
58.7855
59.1632
59.5164
59.8376
60.1194
60.3542
60.5353
60.6561
60.7109
60.6949
60.6036
60.4335
60.181
59.8427
59.4142
58.8901
58.2629
57.5227
56.6569
55.6498
54.5105
53.2349
51.815
50.2464
48.5298
46.6726
44.6898
42.6043
40.4472
38.2563
36.0742
33.9458
31.9149
30.0207
28.2957
26.7635
25.438
24.3243
23.4198
22.7155
22.1978
21.8497
21.6518
21.5829
21.6199
21.7399
21.9133
22.1056
22.2823
22.4105
22.4605
22.4083
22.2378
21.9421
21.5198
20.9661
20.2581
19.3435
18.1496
16.6205
14.7663
12.688
10.5545
8.54597
6.79836
5.37693
4.28193
3.47217
2.88996
2.47846
2.19
1.98815
1.84655
1.74675
1.676
1.62561
1.5896
1.56383
1.5454
1.53225
1.52288
1.51622
1.51146
1.508
1.50539
1.50334
1.50164
1.50014
1.49875
1.4974
1.49606
1.49471
1.49334
1.49195
1.49055
1.48914
1.48775
1.48637
1.48504
1.48375
1.48251
1.48135
1.48024
1.47921
1.47826
1.47739
1.47662
1.47598
1.47548
1.47515
1.47503
1.47513
1.47547
1.47607
1.47695
1.47809
1.47951
1.4811
1.4828
176.534
152.533
146.921
143.164
139.669
135.67
130.727
124.707
117.749
110.197
102.498
95.093
88.3317
82.4297
77.4672
73.4189
70.1929
67.6655
65.7064
64.1932
63.0186
62.0928
61.3436
60.7141
60.1614
59.654
59.17
58.6947
58.2195
57.7405
57.2569
56.7704
56.2841
55.8023
55.3298
54.8715
54.4323
54.0167
53.6289
53.2727
52.9513
52.6676
52.4239
52.2222
52.0641
51.9509
51.8834
51.8602
51.8773
51.9317
52.0208
52.1426
52.2946
52.4747
52.6802
52.9084
53.1563
53.4207
53.6976
53.9829
54.272
54.5598
54.8407
55.109
55.3583
55.5823
55.7746
55.9292
56.04
56.102
56.1102
56.0606
55.9495
55.7732
55.5278
55.2084
54.8083
54.3187
53.7273
53.0185
52.1866
51.2231
50.1144
48.8484
47.4164
45.8155
44.0501
42.134
40.0906
37.9533
35.7644
33.5725
31.4296
29.3866
27.4894
25.7755
24.2716
22.9928
21.9434
21.1183
20.5054
20.0877
19.8448
19.754
19.7914
19.9323
20.1522
20.4199
20.7
20.9577
21.1601
21.2778
21.287
21.1714
20.9231
20.54
20.0182
19.3403
18.4661
17.339
15.9155
14.2054
12.2935
10.3237
8.4534
6.80565
5.44477
4.37818
3.57479
2.9862
2.56233
2.25972
2.04414
1.89022
1.77979
1.70009
1.64222
1.59998
1.56903
1.54628
1.52951
1.51713
1.50793
1.50104
1.49578
1.49165
1.48832
1.48551
1.48308
1.48088
1.47884
1.47692
1.47507
1.47328
1.47153
1.46983
1.46817
1.46656
1.465
1.46352
1.4621
1.46076
1.4595
1.45832
1.45722
1.4562
1.45528
1.45446
1.45375
1.45317
1.45275
1.45251
1.45246
1.45262
1.453
1.4536
1.45442
1.45545
1.4566
1.45784
164.151
151.771
143.92
139.051
135.262
131.254
126.371
120.409
113.504
106.024
98.4456
91.2268
84.717
79.1136
74.4689
70.7299
67.7833
65.4938
63.7273
62.3635
61.3007
60.456
59.7637
59.1733
58.6471
58.1575
57.6855
57.2187
56.7498
56.2756
55.7955
55.3111
54.8253
54.3419
53.8652
53.3993
52.9485
52.5168
52.1078
51.7247
51.3702
51.0469
50.7567
50.5013
50.2822
50.1006
49.9575
49.8519
49.7799
49.7388
49.7266
49.7414
49.782
49.8467
49.9344
50.0434
50.1723
50.3191
50.4818
50.6579
50.8446
51.0384
51.2356
51.4316
51.6218
51.801
51.9636
52.1042
52.2175
52.2984
52.3422
52.3447
52.3019
52.2099
52.0642
51.8592
51.5871
51.2375
50.7954
50.2508
49.5886
48.7907
47.8387
46.715
45.4058
43.9039
42.2106
40.3378
38.3097
36.1624
33.9433
31.708
29.5165
27.4281
25.4961
23.7635
22.2602
21.002
19.9917
19.2214
18.6753
18.3324
18.1686
18.1582
18.2748
18.4916
18.7832
19.117
19.4572
19.7692
20.0208
20.1834
20.2338
20.1561
19.9422
19.5893
19.0944
18.4436
17.606
16.5378
15.2068
13.6243
11.8635
10.0477
8.31326
6.7697
5.4778
4.44932
3.66129
3.07358
2.64269
2.32957
2.10261
1.93781
1.81756
1.72929
1.66407
1.61557
1.5793
1.55203
1.53144
1.5158
1.50383
1.49459
1.48732
1.48148
1.47668
1.47262
1.46912
1.466
1.46319
1.46059
1.45817
1.4559
1.45374
1.45169
1.44974
1.44788
1.44612
1.44446
1.4429
1.44143
1.44007
1.4388
1.43762
1.43653
1.43555
1.43466
1.43388
1.43323
1.43272
1.43237
1.43218
1.43218
1.43235
1.43271
1.43325
1.43395
1.43475
1.43561
159.284
149.399
139.365
133.609
129.671
125.852
121.301
115.729
109.231
102.154
94.9586
88.0986
81.9194
76.6147
72.234
68.7218
65.9643
63.8275
62.1806
60.9081
59.9132
59.1182
58.462
57.8981
57.3918
56.918
56.4593
56.0044
55.5467
55.0831
54.613
54.1377
53.6598
53.1824
52.7092
52.244
51.7903
51.3516
50.9308
50.5306
50.1535
49.8013
49.4758
49.1783
48.9101
48.6722
48.4657
48.2898
48.141
48.0169
47.9159
47.8369
47.7789
47.7415
47.7243
47.7272
47.7498
47.7919
47.8529
47.9322
48.0285
48.1402
48.2652
48.4005
48.5427
48.6877
48.8311
48.9678
49.093
49.2014
49.2884
49.3495
49.3804
49.3765
49.3329
49.2432
49.0984
48.8869
48.5964
48.2098
47.7067
47.0639
46.2572
45.2632
44.0625
42.6429
41.0022
39.1506
37.1131
34.9291
32.6518
30.345
28.0777
25.9185
23.9288
22.1573
20.6365
19.3824
18.3954
17.6639
17.1677
16.8813
16.7769
16.8257
16.999
17.2685
17.6076
17.9831
18.3593
18.7026
18.9818
19.1694
19.2436
19.1892
18.9983
18.668
18.1955
17.5698
16.7667
15.7528
14.5053
13.0379
11.4151
9.74314
8.13965
6.70086
5.48256
4.49882
3.73299
3.15216
2.71896
2.39875
2.16277
1.98859
1.85945
1.76313
1.69078
1.63607
1.59441
1.5625
1.53789
1.51879
1.50385
1.49205
1.48258
1.47485
1.46843
1.46299
1.4583
1.45417
1.45049
1.44716
1.44411
1.4413
1.4387
1.43627
1.434
1.43188
1.4299
1.42805
1.42633
1.42473
1.42325
1.42189
1.42063
1.41947
1.41842
1.41747
1.41663
1.4159
1.41531
1.41486
1.41456
1.41441
1.41441
1.41456
1.41486
1.4153
1.4158
1.41637
171.682
140.846
130.948
126.057
122.79
119.599
115.704
110.819
105.008
98.5772
91.9534
85.5689
79.7661
74.749
70.5833
67.2302
64.5904
62.5405
60.9578
59.7327
58.7732
58.005
57.37
56.8239
56.3336
55.875
55.4316
54.9923
54.5505
54.1029
53.6486
53.1886
52.7247
52.2597
51.7967
51.3387
50.8889
50.45
50.0245
49.6148
49.2226
48.8494
48.4966
48.1652
47.8564
47.571
47.3102
47.0738
46.8585
46.6621
46.4833
46.3216
46.1766
46.0489
45.9389
45.8477
45.7762
45.7257
45.6972
45.6915
45.7092
45.7504
45.8143
45.8997
46.0044
46.1253
46.2588
46.4004
46.5452
46.6883
46.8243
46.9485
47.0562
47.142
47.2005
47.2247
47.2053
47.1305
46.9847
46.7475
46.3943
45.8966
45.2242
44.3475
43.2412
41.8875
40.2803
38.4284
36.3576
34.1116
31.7506
29.3475
26.9818
24.7323
22.669
20.8459
19.2978
18.0394
17.0677
16.366
15.9091
15.6666
15.6068
15.6979
15.9093
16.2114
16.5788
16.9762
17.3691
17.7248
18.0138
18.2105
18.2946
18.2519
18.0752
17.7617
17.3086
16.7071
15.938
14.9765
13.8077
12.4475
10.9538
9.41805
7.94124
6.60686
5.46506
4.53083
3.79252
3.22345
2.79193
2.46765
2.22475
2.0426
1.90544
1.80153
1.72227
1.66138
1.61425
1.57753
1.54871
1.52593
1.50779
1.49321
1.48134
1.47155
1.46335
1.45639
1.4504
1.44517
1.44054
1.43642
1.4327
1.42932
1.42624
1.42342
1.42082
1.41842
1.41621
1.41418
1.4123
1.41057
1.40899
1.40753
1.4062
1.40498
1.40387
1.40287
1.40197
1.40119
1.40054
1.40001
1.39961
1.39934
1.39921
1.3992
1.39931
1.39953
1.39982
1.40017
174.053
133.084
122.679
118.553
116.091
113.675
110.57
106.493
101.476
95.7757
89.7748
83.8796
78.4305
73.6488
69.6277
66.3568
63.7595
61.7293
60.1542
58.9311
57.9719
57.2044
56.572
56.0308
55.5479
55.0994
54.6683
54.2433
53.8173
53.3865
52.9494
52.5063
52.0586
51.6083
51.158
50.7103
50.2677
49.8325
49.4067
48.9921
48.59
48.2017
47.8279
47.4695
47.1271
46.8017
46.4944
46.2054
45.9317
45.6716
45.4241
45.1892
44.9672
44.7593
44.567
44.3922
44.2372
44.1046
43.9968
43.9162
43.8649
43.8445
43.856
43.8995
43.974
44.0775
44.2069
44.3584
44.5272
44.7078
44.8946
45.0823
45.2664
45.4393
45.5959
45.7291
45.8291
45.8829
45.8726
45.7749
45.5609
45.197
44.6466
43.8737
42.8461
41.5403
39.9464
38.0714
35.9431
33.6103
31.1414
28.6202
26.1384
23.7859
21.6412
19.7634
18.188
16.9267
15.9713
15.299
14.8784
14.6743
14.6508
14.7736
15.0106
15.3318
15.7122
16.1162
16.5104
16.8642
17.1499
17.3441
17.428
17.3891
17.2206
16.9198
16.484
15.9055
15.1691
14.2561
13.158
11.8928
10.5131
9.09879
7.73681
6.49954
5.43143
4.54738
3.83927
3.28542
2.859
2.53358
2.28606
2.09764
1.95364
1.84295
1.75726
1.69044
1.63795
1.59641
1.56331
1.53675
1.51527
1.49777
1.48336
1.47137
1.46128
1.45271
1.44533
1.43893
1.43332
1.42836
1.42394
1.41998
1.4164
1.41317
1.41024
1.40756
1.40512
1.4029
1.40087
1.39902
1.39732
1.39578
1.39438
1.3931
1.39193
1.39089
1.38995
1.38913
1.38842
1.38782
1.38734
1.38698
1.38673
1.38659
1.38656
1.38661
1.38673
1.38691
171.587
126.695
115.758
112.083
110.278
108.579
106.235
102.945
98.703
93.7139
88.3132
82.8781
77.7447
73.1519
69.2231
65.9798
63.3724
61.314
59.705
58.4495
57.4629
56.6749
56.0287
55.4803
54.9961
54.5514
54.1283
53.7145
53.3023
52.8869
52.4662
52.0397
51.6081
51.173
50.7363
50.3001
49.8664
49.4371
49.0138
48.598
48.1906
47.7925
47.4042
47.0261
46.6588
46.3029
45.9592
45.6282
45.3075
44.996
44.6931
44.3991
44.1151
43.8427
43.5843
43.3426
43.121
42.9231
42.7525
42.6129
42.5078
42.4401
42.412
42.425
42.479
42.5729
42.704
42.8688
43.063
43.2803
43.5143
43.7593
44.0096
44.2591
44.5015
44.7293
44.9323
45.0964
45.2022
45.2237
45.1284
44.8776
44.4289
43.7394
42.7704
41.4928
39.8925
37.9758
35.7725
33.3373
30.7481
28.1002
25.4978
23.0419
20.8192
18.8922
17.2953
16.036
15.0994
14.456
14.0684
13.8965
13.901
14.0453
14.2965
14.6246
15.0041
15.401
15.7838
16.1239
16.396
16.5785
16.6547
16.6132
16.4478
16.1559
15.7346
15.1772
14.471