/*--------------------------------*- C++ -*----------------------------------*\
  =========                 |
  \\      /  F ield         | OpenFOAM: The Open Source CFD Toolbox
   \\    /   O peration     | Website:  https://openfoam.org
    \\  /    A nd           | Version:  9
     \\/     M anipulation  |
\*---------------------------------------------------------------------------*/
FoamFile
{
    format      ascii;
    class       volScalarField;
    location    "0.06";
    object      k;
}
// * * * * * * * * * * * * * * * * * * * * * * * * * * * * * * * * * * * * * //

dimensions      [0 2 -2 0 0 0 0];

internalField   nonuniform List<scalar> 
12225
(
0.266374
0.160344
0.103723
0.0739577
0.0578317
0.0483601
0.0420913
0.0374221
0.0336409
0.0304269
0.0276217
0.0251412
0.0229509
0.0210825
0.0197277
0.0199356
0.0292988
0.118674
0.334565
0.249609
0.196141
0.164194
0.143836
0.129603
0.118723
0.109804
0.102138
0.0953428
0.0891876
0.083525
0.0782858
0.0735365
0.0697127
0.0696029
0.0853533
0.196441
0.345147
0.285542
0.239172
0.206222
0.182625
0.165094
0.151432
0.140287
0.130864
0.122697
0.115495
0.10907
0.103324
0.0983247
0.0946967
0.0962236
0.119606
0.235024
0.350081
0.304726
0.265083
0.23368
0.209286
0.190167
0.174829
0.162184
0.151503
0.14232
0.134332
0.127351
0.121301
0.116315
0.113271
0.116551
0.143796
0.254308
0.353149
0.316418
0.282232
0.253216
0.229328
0.209759
0.19359
0.180032
0.168496
0.158571
0.149987
0.142581
0.136321
0.131441
0.129029
0.133636
0.16163
0.261416
0.355201
0.3241
0.294221
0.267693
0.244912
0.225581
0.209177
0.19517
0.183122
0.172705
0.163698
0.155984
0.149588
0.14483
0.142932
0.148226
0.174771
0.260878
0.356626
0.329389
0.302887
0.27867
0.25723
0.238528
0.222293
0.208191
0.195916
0.185226
0.17596
0.168051
0.161576
0.156923
0.155342
0.160704
0.184445
0.255984
0.357633
0.333128
0.309273
0.287098
0.26704
0.249171
0.233367
0.219429
0.207156
0.196384
0.187007
0.179007
0.172504
0.167922
0.166454
0.171392
0.191656
0.249145
0.358348
0.335807
0.314023
0.293603
0.27487
0.257918
0.242702
0.22911
0.217018
0.206321
0.196966
0.188969
0.182485
0.177942
0.176417
0.180598
0.19721
0.24205
0.358855
0.33773
0.317559
0.29862
0.281102
0.265079
0.250536
0.237411
0.225632
0.215139
0.205916
0.19801
0.19159
0.187063
0.185361
0.188609
0.201732
0.235779
0.359211
0.339104
0.320177
0.302465
0.28603
0.2709
0.257062
0.244477
0.233105
0.222916
0.213919
0.20618
0.199869
0.195355
0.193414
0.195679
0.205673
0.230906
0.359438
0.339996
0.321937
0.305139
0.289566
0.275195
0.261998
0.249944
0.239001
0.229159
0.220439
0.212913
0.206744
0.202254
0.20008
0.201484
0.209019
0.227875
0.359601
0.340647
0.323262
0.307218
0.292394
0.27872
0.266146
0.254634
0.244159
0.234716
0.226333
0.219081
0.213108
0.208687
0.206322
0.206958
0.212388
0.22605
0.359729
0.341162
0.324344
0.308973
0.294859
0.281882
0.269964
0.259051
0.249116
0.240153
0.232188
0.225286
0.219571
0.215259
0.212725
0.212631
0.216157
0.225426
0.35982
0.341538
0.325163
0.310354
0.296871
0.284552
0.273287
0.263004
0.253661
0.245246
0.237775
0.231299
0.22591
0.221765
0.219121
0.218405
0.220333
0.22612
0.359879
0.341788
0.325731
0.311353
0.29839
0.286649
0.275992
0.266326
0.257592
0.249763
0.242839
0.236848
0.231849
0.22794
0.225275
0.224101
0.224809
0.228027
0.359911
0.341935
0.326084
0.31201
0.299438
0.288161
0.278022
0.26891
0.260748
0.25349
0.247116
0.241628
0.237051
0.23343
0.23084
0.229396
0.229277
0.230761
0.359922
0.342003
0.32627
0.312385
0.300075
0.289129
0.27938
0.270704
0.263011
0.256236
0.250339
0.245298
0.241107
0.237769
0.235303
0.233738
0.233127
0.233555
0.359911
0.341998
0.326305
0.3125
0.300315
0.289538
0.280003
0.271578
0.264164
0.257687
0.252089
0.24733
0.24338
0.240217
0.237821
0.236177
0.235273
0.2351
0.359873
0.341888
0.326105
0.312195
0.299901
0.289019
0.279391
0.270892
0.263423
0.256907
0.251282
0.246498
0.242513
0.239291
0.236799
0.235003
0.233868
0.233358
0.359805
0.341642
0.325599
0.311369
0.29872
0.287476
0.277499
0.268678
0.260919
0.254146
0.248294
0.243304
0.239126
0.235716
0.23303
0.231024
0.229655
0.228876
0.359669
0.341116
0.324516
0.309628
0.296289
0.284376
0.273783
0.264413
0.256177
0.248994
0.242789
0.237494
0.233046
0.229388
0.226466
0.224228
0.222624
0.2216
0.35941
0.340096
0.322471
0.306463
0.292038
0.279143
0.267702
0.257621
0.2488
0.241141
0.234548
0.228935
0.224219
0.220328
0.217195
0.214756
0.212953
0.211729
0.358943
0.338264
0.318944
0.301245
0.285321
0.271179
0.258744
0.247893
0.238489
0.230395
0.223481
0.217627
0.212729
0.208692
0.205431
0.202873
0.200949
0.199597
0.358151
0.335171
0.313264
0.293221
0.275393
0.25984
0.246408
0.234876
0.225029
0.216665
0.209601
0.203676
0.198754
0.194717
0.191464
0.188907
0.186971
0.185589
0.356875
0.330116
0.304428
0.281363
0.261374
0.244392
0.230135
0.218203
0.208216
0.199878
0.192939
0.187192
0.182467
0.178623
0.175545
0.173136
0.171315
0.170013
0.354869
0.321836
0.290745
0.26402
0.241878
0.223822
0.209182
0.197345
0.187701
0.179817
0.173371
0.168112
0.163844
0.160412
0.157694
0.15559
0.154018
0.15291
0.35173
0.307653
0.268917
0.238224
0.21452
0.196285
0.182176
0.171169
0.162539
0.155651
0.150134
0.145715
0.142191
0.139408
0.137246
0.135612
0.134431
0.133638
0.344971
0.279953
0.231436
0.1977
0.17414
0.157369
0.14514
0.136021
0.129145
0.12385
0.119747
0.116569
0.114121
0.112264
0.110895
0.109935
0.109323
0.109007
0.300018
0.214145
0.158066
0.121377
0.09731
0.0814221
0.0707821
0.0634824
0.0583568
0.0547837
0.0522233
0.0503558
0.0489891
0.0480009
0.0473095
0.0468574
0.046602
0.0465089
0.0971348
0.135476
0.139532
0.147959
0.153282
0.155396
0.155004
0.152698
0.148914
0.144278
0.141269
0.144862
0.146303
0.142661
0.145594
0.153289
0.16486
0.178702
0.192249
0.203331
0.210669
0.214598
0.220316
0.232464
0.250935
0.27455
0.301509
0.330113
0.359077
0.387541
0.414969
0.441059
0.465662
0.488732
0.510285
0.530374
0.549079
0.566486
0.582691
0.59779
0.611878
0.625052
0.637408
0.64905
0.660085
0.670636
0.680843
0.690876
0.700615
0.709695
0.718171
0.726081
0.733436
0.740234
0.746464
0.752112
0.757156
0.761574
0.765343
0.768436
0.770826
0.772486
0.77339
0.773512
0.772825
0.771306
0.768933
0.765686
0.761547
0.756501
0.750537
0.743646
0.735822
0.727065
0.717377
0.706764
0.695238
0.68282
0.669546
0.655486
0.640823
0.626323
0.614658
0.607529
0.600884
0.593919
0.586421
0.578333
0.569653
0.560403
0.550618
0.540338
0.529609
0.518473
0.506973
0.495146
0.483024
0.47063
0.457976
0.44506
0.431854
0.418297
0.404251
0.389395
0.373686
0.357565
0.340468
0.321997
0.301885
0.280023
0.256523
0.231879
0.207116
0.183987
0.169207
0.166134
0.161223
0.164588
0.156984
0.141653
0.121997
0.101419
0.0826746
0.0674403
0.0562275
0.0486396
0.0438401
0.0409631
0.0393191
0.0384315
0.0379957
0.0378245
0.0378047
0.0378679
0.0379718
0.0380903
0.0382069
0.0383121
0.0384014
0.0384739
0.038531
0.0385765
0.0386109
0.0386229
0.0386113
0.0385781
0.0385252
0.038454
0.0383662
0.0382636
0.0381487
0.0380239
0.037892
0.0377554
0.0376161
0.0374754
0.037334
0.0371916
0.0370477
0.0369012
0.0367519
0.0366
0.0364465
0.0362927
0.0361397
0.0359884
0.0358389
0.0356908
0.0355426
0.0353925
0.0352412
0.0350895
0.0349344
0.0347747
0.0346105
0.0344439
0.0342789
0.0341213
0.0339607
0.0337479
0.168812
0.221624
0.253931
0.272143
0.281761
0.286133
0.287605
0.288047
0.289197
0.293227
0.299621
0.310627
0.328075
0.35378
0.389907
0.436128
0.490489
0.546355
0.594224
0.631937
0.658789
0.675541
0.68417
0.687345
0.687718
0.687448
0.688021
0.690357
0.69501
0.702276
0.712243
0.724826
0.739808
0.756879
0.775681
0.795842
0.817006
0.838854
0.861113
0.883564
0.906033
0.928393
0.950551
0.972442
0.994025
1.01527
1.03618
1.0567
1.07656
1.0962
1.11565
1.13488
1.15385
1.17249
1.19075
1.20856
1.22583
1.24249
1.25847
1.27366
1.28797
1.30133
1.31363
1.32478
1.33469
1.34326
1.35042
1.35607
1.36013
1.36254
1.36322
1.3621
1.35914
1.35427
1.34746
1.33867
1.32788
1.31505
1.3002
1.28332
1.26443
1.24356
1.2205
1.19714
1.17312
1.14804
1.12184
1.09453
1.06622
1.03702
1.00707
0.976534
0.945544
0.914254
0.882802
0.851321
0.819926
0.788718
0.757779
0.727172
0.696933
0.667065
0.637514
0.608099
0.57787
0.546459
0.514638
0.482707
0.451243
0.421082
0.393214
0.368587
0.347561
0.328899
0.310811
0.294566
0.275172
0.255772
0.232439
0.205196
0.1763
0.148499
0.123888
0.103629
0.0880005
0.0766133
0.0687178
0.0634831
0.0601648
0.0581675
0.0570485
0.0564951
0.056295
0.0563084
0.0564439
0.0566427
0.0568666
0.0570915
0.0573027
0.0574922
0.0576564
0.0577945
0.0579076
0.0579922
0.0580476
0.0580756
0.0580784
0.0580583
0.0580174
0.0579581
0.0578831
0.0577953
0.0576974
0.0575923
0.0574823
0.0573691
0.0572537
0.0571367
0.0570178
0.0568967
0.0567731
0.0566475
0.0565204
0.0563932
0.0562669
0.0561423
0.0560198
0.0558992
0.0557795
0.0556589
0.055535
0.0554097
0.0552808
0.0551473
0.0550099
0.0548711
0.0547351
0.0546108
0.0544835
0.0543308
0.245227
0.302831
0.338796
0.361039
0.374702
0.383438
0.390242
0.39793
0.4095
0.425424
0.446812
0.476416
0.517537
0.568872
0.628063
0.6901
0.748218
0.79548
0.826991
0.841905
0.842662
0.833796
0.820482
0.807285
0.797459
0.792862
0.79421
0.801446
0.814039
0.831194
0.851985
0.875451
0.900678
0.926868
0.953374
0.97972
1.0056
1.03085
1.05541
1.07934
1.10269
1.12558
1.14811
1.17038
1.19246
1.21442
1.2363
1.25805
1.27982
1.30165
1.32351
1.34534
1.36707
1.38862
1.40991
1.43083
1.45128
1.47116
1.49035
1.50874
1.5262
1.5426
1.55783
1.57176
1.58426
1.59522
1.60452
1.61204
1.61768
1.62134
1.62293
1.62236
1.61957
1.61449
1.60705
1.59722
1.58495
1.57021
1.55299
1.53328
1.51104
1.4862
1.45848
1.42931
1.39907
1.36754
1.33468
1.30058
1.26538
1.22924
1.19234
1.1549
1.1171
1.07915
1.04123
1.00351
0.966156
0.929293
0.893037
0.857473
0.822663
0.788632
0.755363
0.722764
0.690554
0.658033
0.624977
0.591143
0.556423
0.521039
0.485755
0.451954
0.421273
0.394801
0.372843
0.354482
0.336383
0.315273
0.28876
0.257013
0.222534
0.188639
0.158107
0.132577
0.112537
0.0976179
0.0869889
0.0796977
0.074876
0.0718159
0.0699744
0.0689519
0.068464
0.0683143
0.0683706
0.0685447
0.0687787
0.0690344
0.0692875
0.0695231
0.0697323
0.069911
0.0700584
0.0701733
0.0702552
0.0703059
0.0703277
0.0703231
0.0702946
0.070245
0.0701772
0.070094
0.0699985
0.0698936
0.069782
0.0696657
0.0695463
0.0694247
0.0693012
0.0691758
0.0690485
0.0689196
0.0687896
0.0686596
0.0685306
0.0684036
0.068279
0.0681572
0.0680375
0.0679188
0.0677994
0.0676789
0.067556
0.0674306
0.0673037
0.0671788
0.0670612
0.0669627
0.0668781
0.0668165
0.319714
0.384529
0.429125
0.457956
0.477059
0.491183
0.504566
0.521597
0.543237
0.570248
0.604721
0.647757
0.698833
0.754838
0.810555
0.859603
0.896089
0.916381
0.920329
0.911293
0.894816
0.876827
0.862172
0.853917
0.85337
0.860486
0.87438
0.893746
0.917167
0.943292
0.970941
0.999152
1.0272
1.05457
1.08098
1.1063
1.13053
1.15379
1.17623
1.19803
1.21939
1.24047
1.26143
1.28238
1.30341
1.32455
1.34584
1.36727
1.38893
1.41081
1.43287
1.45504
1.47724
1.49938
1.52136
1.54306
1.56436
1.58514
1.60526
1.62459
1.64298
1.6603
1.67639
1.69113
1.70435
1.71593
1.72573
1.73363
1.73951
1.74325
1.74476
1.74394
1.74072
1.73503
1.72679
1.71598
1.70253
1.68643
1.66763
1.64612
1.62183
1.59465
1.56437
1.53214
1.4986
1.46365
1.42733
1.38974
1.35106
1.31149
1.27125
1.23058
1.18971
1.14887
1.10828
1.06814
1.02863
0.989902
0.952082
0.915268
0.879526
0.844886
0.811328
0.77876
0.74698
0.715544
0.683924
0.651795
0.618809
0.584761
0.549787
0.514563
0.480332
0.448625
0.420809
0.397196
0.376087
0.354309
0.328584
0.297383
0.261794
0.224848
0.189973
0.159732
0.135328
0.116753
0.103246
0.0937709
0.0873252
0.083077
0.0803831
0.0787633
0.0778685
0.0774504
0.0773366
0.0774092
0.0775885
0.0778212
0.0780717
0.078317
0.0785425
0.0787396
0.0789047
0.0790364
0.0791338
0.0791981
0.0792313
0.0792359
0.0792148
0.0791706
0.0791062
0.0790247
0.0789291
0.0788225
0.0787075
0.0785866
0.0784616
0.078334
0.0782044
0.0780732
0.0779406
0.0778068
0.0776723
0.077538
0.0774048
0.0772737
0.0771454
0.0770205
0.0768988
0.0767798
0.0766624
0.0765454
0.0764279
0.0763101
0.0761934
0.0760814
0.07598
0.0759013
0.0758461
0.0758297
0.396121
0.475393
0.531277
0.568669
0.594889
0.615779
0.636508
0.659108
0.684637
0.7155
0.752523
0.794755
0.839415
0.882162
0.917973
0.94245
0.953219
0.950828
0.938697
0.92205
0.9063
0.895675
0.892577
0.897649
0.910263
0.929082
0.95251
0.978994
1.00717
1.03594
1.06447
1.09217
1.11867
1.1438
1.16754
1.18998
1.21129
1.23168
1.25139
1.27062
1.28959
1.30847
1.3274
1.34648
1.36579
1.38536
1.40518
1.42529
1.44573
1.46651
1.48756
1.50882
1.5302
1.55161
1.57292
1.59403
1.6148
1.6351
1.65477
1.67369
1.69168
1.7086
1.7243
1.73861
1.75139
1.7625
1.77178
1.77911
1.78437
1.78743
1.78821
1.7866
1.78252
1.77592
1.76672
1.75488
1.74037
1.72314
1.70317
1.68041
1.65481
1.62626
1.59459
1.56086
1.52573
1.48915
1.4512
1.41204
1.37185
1.33087
1.28934
1.24753
1.2057
1.16411
1.123
1.08259
1.04307
1.00461
0.967332
0.931343
0.896699
0.863418
0.831467
0.800742
0.77104
0.741988
0.712999
0.683706
0.653696
0.622594
0.590222
0.556775
0.522953
0.489943
0.4592
0.431777
0.407344
0.383845
0.358226
0.328065
0.293058
0.255265
0.21801
0.184412
0.156401
0.134513
0.118247
0.106598
0.0984909
0.0929912
0.0893661
0.0870636
0.0856771
0.0849119
0.084558
0.0844686
0.084542
0.0847086
0.0849209
0.0851468
0.0853652
0.0855627
0.0857316
0.0858692
0.0859734
0.0860445
0.0860839
0.0860941
0.0860773
0.0860366
0.0859745
0.0858942
0.0857986
0.0856907
0.0855732
0.0854489
0.0853198
0.0851875
0.0850533
0.0849177
0.0847811
0.0846438
0.0845062
0.0843691
0.0842332
0.0840994
0.0839688
0.083842
0.0837193
0.0836006
0.0834852
0.0833718
0.0832598
0.0831495
0.0830421
0.0829412
0.0828523
0.0827863
0.0827454
0.0827451
0.473841
0.569697
0.640007
0.688476
0.723206
0.750744
0.773883
0.794878
0.81729
0.84288
0.871521
0.901323
0.929113
0.951257
0.964725
0.968115
0.96229
0.950276
0.936401
0.925035
0.919471
0.921397
0.930975
0.947299
0.968916
0.994239
1.02179
1.05034
1.0789
1.10676
1.13344
1.15865
1.18228
1.20435
1.22497
1.24433
1.26264
1.28016
1.2971
1.31369
1.33012
1.34656
1.36314
1.37994
1.39703
1.41445
1.4322
1.45029
1.46877
1.48764
1.50684
1.52631
1.54596
1.5657
1.5854
1.60494
1.6242
1.64303
1.66129
1.67883
1.69548
1.71109
1.72551
1.73856
1.7501
1.75999
1.76807
1.77421
1.7783
1.78021
1.77986
1.77714
1.77199
1.76434
1.75414
1.74134
1.7259
1.7078
1.687
1.66346
1.63711
1.60789
1.57562
1.54141
1.50577
1.4687
1.43032
1.39079
1.35034
1.3092
1.26767
1.22603
1.18457
1.14357
1.1033
1.06399
1.02584
0.989027
0.953672
0.919862
0.887643
0.85701
0.827904
0.800197
0.77366
0.747923
0.722404
0.696677
0.670292
0.642795
0.613843
0.583356
0.551659
0.519562
0.488287
0.459056
0.432296
0.406995
0.380824
0.351275
0.317217
0.279728
0.2416
0.206036
0.175441
0.150871
0.132177
0.118503
0.108781
0.102022
0.0974277
0.0943867
0.0924448
0.0912676
0.0906124
0.0903055
0.0902241
0.0902824
0.0904204
0.0905969
0.0907834
0.0909611
0.091118
0.0912487
0.0913495
0.0914192
0.0914585
0.0914691
0.091453
0.0914128
0.0913511
0.0912708
0.0911747
0.0910656
0.0909464
0.0908196
0.0906876
0.0905522
0.0904148
0.0902763
0.0901372
0.089998
0.0898589
0.0897205
0.0895836
0.089449
0.0893176
0.0891904
0.0890679
0.0889503
0.0888374
0.0887277
0.088621
0.0885173
0.088418
0.0883259
0.0882457
0.0881864
0.0881498
0.0881509
0.543695
0.660367
0.747968
0.808942
0.851952
0.880974
0.900424
0.91528
0.928821
0.942586
0.956401
0.968728
0.977392
0.980512
0.977351
0.968802
0.957298
0.946159
0.938645
0.937123
0.942662
0.955112
0.973475
0.996346
1.02225
1.04983
1.07798
1.10583
1.13275
1.15831
1.18228
1.20455
1.22514
1.24416
1.26179
1.27823
1.29371
1.30847
1.32272
1.33667
1.3505
1.36436
1.37837
1.39263
1.40719
1.42209
1.43734
1.45296
1.46898
1.4854
1.50218
1.51926
1.53655
1.55395
1.57136
1.58867
1.60573
1.62241
1.63858
1.65407
1.66874
1.68242
1.69496
1.7062
1.71599
1.72419
1.73065
1.73524
1.73785
1.73836
1.73669
1.73275
1.72647
1.71779
1.70667
1.69306
1.67693
1.65824
1.63696
1.61305
1.58645
1.55709
1.52484
1.49086
1.45545
1.41865
1.38059
1.34146
1.30149
1.26098
1.22021
1.17952
1.13921
1.0996
1.06097
1.02358
0.987634
0.953307
0.920713
0.889921
0.860951
0.833768
0.808279
0.784315
0.761616
0.739787
0.718249
0.696524
0.674126
0.650547
0.625348
0.598284
0.569439
0.539333
0.508926
0.47937
0.451432
0.42482
0.397965
0.36868
0.335518
0.298839
0.260805
0.224404
0.192227
0.165708
0.145048
0.129606
0.118393
0.11042
0.104854
0.101046
0.0985046
0.0968641
0.0958546
0.0952796
0.0949969
0.0949053
0.0949327
0.0950282
0.0951562
0.0952918
0.0954184
0.0955272
0.0956121
0.0956703
0.0957012
0.0957055
0.0956847
0.0956408
0.0955762
0.0954935
0.0953952
0.095284
0.0951627
0.0950337
0.0948993
0.0947615
0.094622
0.0944816
0.0943411
0.094201
0.0940615
0.0939231
0.0937865
0.0936523
0.0935216
0.0933953
0.093274
0.0931581
0.0930478
0.0929417
0.0928397
0.0927418
0.0926489
0.0925633
0.0924887
0.0924318
0.0923937
0.0923892
0.592691
0.736054
0.844092
0.917872
0.964271
0.991366
1.00576
1.0123
1.01438
1.01394
1.01161
1.00707
0.999752
0.98958
0.97743
0.965158
0.955173
0.949762
0.950495
0.957938
0.971717
0.990808
1.01388
1.03958
1.06666
1.0941
1.12111
1.14709
1.17166
1.19458
1.21574
1.23515
1.2529
1.26913
1.28402
1.29778
1.31064
1.3228
1.33447
1.34584
1.35708
1.36833
1.3797
1.39129
1.40315
1.41534
1.42785
1.44072
1.45399
1.46763
1.48163
1.49593
1.51045
1.5251
1.53979
1.5544
1.56882
1.58292
1.59655
1.60957
1.62184
1.63321
1.64352
1.65263
1.66038
1.66664
1.67128
1.67417
1.67519
1.67425
1.67126
1.66614
1.65882
1.64927
1.63742
1.62324
1.6067
1.58776
1.56637
1.5425
1.51609
1.48705
1.45533
1.42211
1.38744
1.35139
1.31411
1.27582
1.23677
1.19727
1.15765
1.11826
1.07946
1.0416
1.00498
0.96988
0.936529
0.90509
0.875668
0.848311
0.823004
0.799676
0.778188
0.758328
0.73979
0.722148
0.704814
0.687269
0.668984
0.649405
0.62803
0.604515
0.578787
0.551159
0.522371
0.493441
0.46525
0.437949
0.410585
0.381433
0.349054
0.313378
0.276018
0.239605
0.206701
0.17895
0.156836
0.139948
0.127425
0.118329
0.111824
0.107246
0.10408
0.101939
0.100533
0.0996459
0.0991197
0.098839
0.0987204
0.0987036
0.0987455
0.0988154
0.0988918
0.0989618
0.0990167
0.0990516
0.0990642
0.0990539
0.0990214
0.0989683
0.0988962
0.0988074
0.0987042
0.098589
0.0984642
0.0983322
0.0981952
0.0980551
0.0979136
0.0977717
0.0976303
0.0974898
0.0973506
0.0972129
0.0970773
0.0969445
0.0968153
0.0966906
0.0965711
0.0964575
0.0963497
0.0962469
0.0961488
0.0960556
0.0959676
0.0958866
0.095815
0.0957578
0.0957153
0.0957023
0.594582
0.781334
0.916672
1.00015
1.04979
1.07602
1.08576
1.08414
1.07509
1.06148
1.04522
1.02751
1.00936
0.991956
0.976846
0.96577
0.960258
0.961244
0.96888
0.982602
1.00135
1.02386
1.04882
1.07509
1.10168
1.12784
1.153
1.17677
1.19889
1.21924
1.23781
1.25464
1.26984
1.28358
1.29602
1.30737
1.31783
1.3276
1.33685
1.34578
1.35452
1.36322
1.37198
1.3809
1.39004
1.39946
1.40916
1.41918
1.42955
1.44026
1.4513
1.46262
1.47414
1.48581
1.49753
1.5092
1.52072
1.53197
1.54282
1.55314
1.5628
1.57166
1.57958
1.58641
1.59203
1.59629
1.59907
1.60027
1.59976
1.59746
1.59329
1.58717
1.57905
1.56887
1.55659
1.54218
1.52558
1.50676
1.48568
1.46225
1.43642
1.40808
1.37745
1.34534
1.31174
1.27675
1.24052
1.20327
1.1653
1.12692
1.08852
1.05047
1.0132
0.977083
0.942478
0.909689
0.878955
0.850444
0.824249
0.80039
0.778818
0.759414
0.741991
0.726285
0.711939
0.698491
0.685338
0.671924
0.657672
0.641989
0.624328
0.60428
0.581674
0.556683
0.529875
0.502132
0.474343
0.446909
0.419337
0.390356
0.358702
0.324106
0.287758
0.251908
0.218952
0.1906
0.167532
0.149544
0.135931
0.125833
0.118451
0.113122
0.109326
0.106663
0.104828
0.103594
0.102788
0.102283
0.101986
0.101827
0.101756
0.101736
0.101742
0.101755
0.101765
0.101764
0.101747
0.101713
0.101661
0.101591
0.101506
0.101407
0.101295
0.101173
0.101043
0.100906
0.100765
0.100622
0.100478
0.100335
0.100193
0.100052
0.0999129
0.0997761
0.099642
0.0995109
0.0993837
0.099261
0.0991437
0.0990323
0.098927
0.098827
0.0987322
0.0986425
0.0985581
0.09848
0.0984097
0.0983508
0.0983029
0.0982807
0.540361
0.804268
0.96354
1.05585
1.10925
1.13538
1.14151
1.13321
1.11516
1.09132
1.06493
1.03859
1.01446
0.994345
0.97978
0.971849
0.971044
0.977195
0.989558
1.00701
1.02827
1.05207
1.07728
1.10293
1.12827
1.15272
1.17587
1.19744
1.21728
1.23532
1.2516
1.26617
1.27917
1.29073
1.30104
1.31026
1.31859
1.3262
1.33326
1.33993
1.34635
1.35265
1.35893
1.36529
1.37179
1.37849
1.38543
1.39262
1.40009
1.40786
1.41589
1.42417
1.43263
1.44123
1.44988
1.45851
1.46702
1.47532
1.4833
1.49083
1.49781
1.50411
1.50961
1.51417
1.51767
1.52
1.52104
1.52068
1.51882
1.51538
1.51027
1.50344
1.49482
1.48437
1.47203
1.45777
1.44153
1.42326
1.40289
1.38033
1.35548
1.32824
1.29911
1.26839
1.2361
1.20233
1.16726
1.1311
1.09416
1.05681
1.01946
0.982565
0.946578
0.911951
0.87909
0.848341
0.819966
0.794141
0.770945
0.750373
0.732333
0.716658
0.703104
0.691352
0.680994
0.671524
0.662326
0.652806
0.642338
0.630292
0.616094
0.599292
0.579654
0.557259
0.53255
0.50629
0.479332
0.452208
0.424749
0.396075
0.365164
0.331697
0.296565
0.261666
0.229164
0.200731
0.177157
0.15841
0.143936
0.132982
0.124803
0.118763
0.114347
0.111154
0.108873
0.107265
0.106151
0.105392
0.104887
0.104558
0.104349
0.104217
0.104131
0.104071
0.10402
0.103968
0.10391
0.103842
0.103762
0.10367
0.103565
0.10345
0.103326
0.103193
0.103054
0.102911
0.102765
0.102618
0.102471
0.102325
0.102181
0.10204
0.101901
0.101766
0.101633
0.101504
0.101378
0.101258
0.101143
0.101034
0.100931
0.100833
0.100741
0.100654
0.100572
0.100495
0.100425
0.100364
0.100311
0.10028
0.606941
0.83618
0.994897
1.09005
1.14544
1.17156
1.17543
1.1628
1.13891
1.10861
1.07622
1.04536
1.01889
0.998799
0.986261
0.981647
0.984619
0.994295
1.00946
1.02879
1.05098
1.07485
1.09945
1.12396
1.14778
1.17046
1.19169
1.21127
1.2291
1.24516
1.25948
1.27215
1.28328
1.293
1.30149
1.30889
1.31537
1.3211
1.32622
1.33088
1.33521
1.33932
1.34333
1.34732
1.35135
1.3555
1.3598
1.36427
1.36896
1.37386
1.37896
1.38425
1.3897
1.39525
1.40085
1.40645
1.41196
1.41732
1.42243
1.4272
1.43153
1.43532
1.43847
1.44086
1.44238
1.44293
1.44241
1.44071
1.43776
1.43345
1.42774
1.42054
1.4118
1.40146
1.38948
1.3758
1.36034
1.34304
1.3238
1.30251
1.27903
1.25336
1.22598
1.19687
1.16604
1.13359
1.09967
1.06452
1.02847
0.991916
0.955324
0.919208
0.884101
0.850526
0.818956
0.789791
0.763327
0.73975
0.719133
0.701439
0.686533
0.674197
0.664127
0.655946
0.649193
0.643321
0.637696
0.631686
0.624621
0.615843
0.604753
0.590879
0.573952
0.55399
0.531349
0.506695
0.480828
0.454343
0.427291
0.399106
0.369013
0.336727
0.302942
0.269253
0.237572
0.209464
0.185764
0.166566
0.151458
0.139799
0.13092
0.124222
0.119212
0.115494
0.112757
0.11076
0.109316
0.10828
0.107542
0.10702
0.10665
0.106385
0.106189
0.106037
0.10591
0.105795
0.105684
0.105572
0.105455
0.105332
0.105202
0.105066
0.104924
0.104777
0.104627
0.104475
0.104322
0.104169
0.104018
0.103869
0.103723
0.103581
0.103442
0.103307
0.103175
0.103047
0.102924
0.102806
0.102693
0.102586
0.102485
0.10239
0.1023
0.102214
0.102134
0.102059
0.101989
0.101925
0.101868
0.101829
0.647672
0.855283
1.00726
1.10312
1.15987
1.18676
1.19034
1.17628
1.15006
1.1171
1.0824
1.05024
1.02381
1.00508
0.994851
0.992954
0.998525
1.0103
1.02688
1.04688
1.06907
1.09239
1.11598
1.13919
1.16149
1.18254
1.20207
1.21995
1.23609
1.25051
1.26322
1.27433
1.28393
1.29215
1.29913
1.30502
1.30996
1.3141
1.31756
1.32049
1.323
1.3252
1.32719
1.32904
1.33085
1.33265
1.33452
1.33647
1.33854
1.34073
1.34306
1.3455
1.34804
1.35065
1.35331
1.35596
1.35857
1.36107
1.36341
1.36551
1.3673
1.36871
1.36964
1.37001
1.36974
1.36872
1.36687
1.3641
1.36034
1.3555
1.34951
1.34231
1.33383
1.32401
1.31278
1.30009
1.28582
1.2699
1.25218
1.23252
1.21075
1.18713
1.16166
1.13429
1.10501
1.07389
1.04107
1.0068
0.97141
0.935348
0.899137
0.863365
0.828651
0.795606
0.764788
0.736659
0.711562
0.689698
0.671132
0.655798
0.643516
0.63401
0.626921
0.62181
0.618165
0.6154
0.612862
0.609882
0.605752
0.599792
0.591391
0.580066
0.565532
0.54777
0.527077
0.504043
0.47941
0.453799
0.427403
0.399897
0.370729
0.339687
0.307341
0.275032
0.244426
0.216948
0.193426
0.174043
0.15851
0.146298
0.136819
0.129528
0.123959
0.119732
0.116543
0.114149
0.112361
0.11103
0.110041
0.109305
0.108755
0.108338
0.108014
0.107754
0.107536
0.107345
0.10717
0.107003
0.106841
0.10668
0.106519
0.106356
0.106193
0.106028
0.105864
0.1057
0.105538
0.105378
0.105222
0.105069
0.10492
0.104776
0.104637
0.104501
0.104371
0.104245
0.104123
0.104007
0.103897
0.103792
0.103693
0.103599
0.103511
0.103427
0.103348
0.103274
0.103203
0.103138
0.103078
0.103033
0.650946
0.852337
1.00155
1.09753
1.15569
1.18449
1.18986
1.17715
1.15181
1.11942
1.08532
1.05411
1.02911
1.01223
1.00404
1.00406
1.01118
1.024
1.04105
1.061
1.08268
1.10515
1.12764
1.14957
1.1705
1.19013
1.20825
1.22473
1.23952
1.25262
1.26407
1.27395
1.28235
1.28939
1.29519
1.29987
1.30358
1.30642
1.30853
1.31003
1.31101
1.31157
1.31182
1.31182
1.31166
1.31138
1.31106
1.31072
1.31039
1.31009
1.30983
1.30961
1.30943
1.30928
1.30915
1.30902
1.30887
1.30866
1.30837
1.30795
1.30736
1.30654
1.30544
1.30398
1.30212
1.29976
1.29683
1.29327
1.28899
1.28392
1.27798
1.27112
1.26325
1.2543
1.2442
1.23284
1.22013
1.20591
1.19003
1.17229
1.15272
1.13127
1.10782
1.08227
1.05457
1.02474
0.992931
0.959361
0.924393
0.888506
0.85229
0.816419
0.78161
0.748577
0.717972
0.690334
0.666055
0.645358
0.628299
0.61478
0.604575
0.597351
0.592688
0.590094
0.589005
0.588799
0.588806
0.588324
0.586616
0.582986
0.576822
0.567641
0.555155
0.539326
0.520412
0.498945
0.475616
0.451041
0.425502
0.398853
0.370728
0.340999
0.310156
0.279335
0.249972
0.22334
0.20023
0.180879
0.165105
0.152482
0.142506
0.134692
0.128609
0.123898
0.120266
0.117476
0.115337
0.113699
0.112445
0.11148
0.110733
0.110147
0.109679
0.109297
0.108975
0.108695
0.108445
0.108216
0.108
0.107794
0.107595
0.107401
0.107212
0.107026
0.106845
0.106667
0.106494
0.106326
0.106163
0.106006
0.105854
0.105708
0.105567
0.105432
0.105302
0.105177
0.105058
0.104944
0.104835
0.104732
0.104635
0.104543
0.104457
0.104375
0.104297
0.104224
0.104153
0.104087
0.104024
0.103975
0.620291
0.830604
0.981347
1.07749
1.13744
1.1692
1.17806
1.1689
1.14689
1.11748
1.08604
1.0572
1.03435
1.01936
1.01274
1.01394
1.0218
1.03488
1.0518
1.07126
1.09219
1.11371
1.13512
1.15591
1.17567
1.19414
1.21112
1.2265
1.24025
1.25236
1.26287
1.27183
1.27935
1.2855
1.29042
1.2942
1.29695
1.2988
1.29985
1.30019
1.29993
1.29916
1.29795
1.29639
1.29454
1.29246
1.29021
1.28784
1.28536
1.2828
1.28019
1.27753
1.27485
1.27215
1.26944
1.26672
1.264
1.26128
1.25855
1.25579
1.253
1.25015
1.24721
1.24414
1.24089
1.23742
1.23366
1.22955
1.22502
1.22
1.2144
1.20816
1.20119
1.19341
1.1847
1.17496
1.16405
1.15179
1.13797
1.12252
1.10528
1.08606
1.06467
1.04094
1.01479
0.986197
0.955259
0.922204
0.887406
0.85139
0.814813
0.778444
0.74311
0.709637
0.67878
0.651162
0.627226
0.607215
0.591173
0.578968
0.570323
0.56485
0.562071
0.56144
0.562351
0.564149
0.566149
0.567622
0.567813
0.566022
0.561641
0.5542
0.543415
0.529246
0.511927
0.491944
0.469938
0.446508
0.421986
0.39635
0.369381
0.34103
0.311733
0.282458
0.254438
0.228796
0.206266
0.187121
0.171259
0.158353
0.14798
0.139713
0.133166
0.128003
0.123946
0.120766
0.118276
0.116326
0.114796
0.113589
0.112632
0.111863
0.111238
0.11072
0.110282
0.109904
0.109569
0.109267
0.108991
0.108733
0.108492
0.108262
0.108043
0.107834
0.107633
0.10744
0.107254
0.107077
0.106906
0.106743
0.106588
0.106439
0.106297
0.106162
0.106033
0.105909
0.105792
0.10568
0.105573
0.105473
0.105378
0.105288
0.105203
0.105123
0.105047
0.104974
0.104904
0.104838
0.104774
0.104723
0.595673
0.802012
0.950644
1.04708
1.10931
1.14486
1.15842
1.15435
1.13736
1.11259
1.08515
1.05956
1.03918
1.02595
1.02043
1.02219
1.03014
1.04296
1.05932
1.07804
1.09808
1.11864
1.13906
1.15885
1.17765
1.19519
1.2113
1.22588
1.23887
1.25028
1.26012
1.26846
1.27536
1.28092
1.28522
1.28836
1.29044
1.29156
1.29181
1.29128
1.29006
1.28822
1.28584
1.28298
1.27972
1.2761
1.2722
1.26805
1.26368
1.25913
1.25442
1.24958
1.24463
1.23962
1.23456
1.22949
1.22443
1.21941
1.21445
1.20958
1.2048
1.20012
1.19555
1.19107
1.18667
1.1823
1.17793
1.17349
1.16894
1.16418
1.15915
1.15376
1.1479
1.14147
1.13435
1.1264
1.11745
1.10729
1.09578
1.0827
1.06778
1.05077
1.0314
1.00945
0.984771
0.957287
0.927066
0.894325
0.859457
0.823032
0.785787
0.74859
0.712387
0.678124
0.646665
0.618716
0.594767
0.575075
0.559664
0.548362
0.54084
0.536652
0.535266
0.536089
0.538479
0.541755
0.545221
0.548131
0.549722
0.549302
0.546276
0.540193
0.530786
0.518019
0.502112
0.483517
0.462829
0.440616
0.417231
0.392735
0.367019
0.340096
0.312365
0.284657
0.258029
0.233461
0.211626
0.192815
0.176993
0.163915
0.153236
0.144588
0.137628
0.132049
0.12759
0.124033
0.121197
0.118932
0.11712
0.115664
0.114485
0.113523
0.112729
0.112064
0.111499
0.111011
0.110583
0.110202
0.109858
0.109544
0.109254
0.108985
0.108734
0.108498
0.108275
0.108065
0.107866
0.107678
0.107499
0.107331
0.107171
0.10702
0.106877
0.106741
0.106613
0.106491
0.106375
0.106265
0.106161
0.106063
0.10597
0.105883
0.1058
0.105722
0.105647
0.105576
0.105508
0.105442
0.105379
0.105327
0.604187
0.778687
0.914146
1.00904
1.07355
1.11345
1.13266
1.13491
1.12432
1.10547
1.08306
1.06136
1.04368
1.03207
1.02728
1.02909
1.03663
1.04874
1.06422
1.08196
1.101
1.12057
1.14004
1.15895
1.17694
1.19374
1.20919
1.22318
1.23565
1.24658
1.256
1.26394
1.27046
1.27564
1.27955
1.28228
1.2839
1.28452
1.28419
1.28301
1.28105
1.27837
1.27503
1.27111
1.26666
1.26174
1.25641
1.25071
1.24469
1.23837
1.2318
1.22501
1.21805
1.21096
1.20379
1.1966
1.18944
1.18235
1.17539
1.16862
1.16208
1.1558
1.14982
1.14414
1.13879
1.13373
1.12895
1.1244
1.12002
1.11573
1.11144
1.10705
1.10246
1.09753
1.09212
1.08606
1.07919
1.07128
1.06209
1.05134
1.0387
1.02384
1.00643
0.986174
0.962845
0.936325
0.906641
0.874002
0.838822
0.801726
0.763537
0.725235
0.687893
0.652584
0.620281
0.591768
0.567575
0.547955
0.532905
0.522201
0.515458
0.512172
0.511762
0.513595
0.516998
0.521273
0.525757
0.529659
0.532224
0.532774
0.530742
0.5257
0.517406
0.505837
0.491203
0.473929
0.454562
0.433634
0.411495
0.388256
0.363886
0.338447
0.312307
0.28618
0.26097
0.237531
0.216473
0.198094
0.182411
0.169253
0.158345
0.149379
0.142052
0.136089