/*--------------------------------*- C++ -*----------------------------------*\
  =========                 |
  \\      /  F ield         | OpenFOAM: The Open Source CFD Toolbox
   \\    /   O peration     | Website:  https://openfoam.org
    \\  /    A nd           | Version:  9
     \\/     M anipulation  |
\*---------------------------------------------------------------------------*/
FoamFile
{
    format      ascii;
    class       volScalarField;
    location    "0.06";
    object      nut;
}
// * * * * * * * * * * * * * * * * * * * * * * * * * * * * * * * * * * * * * //

dimensions      [0 2 -1 0 0 0 0];

internalField   nonuniform List<scalar> 
12225
(
3.04643e-05
1.83382e-05
1.18629e-05
8.45909e-06
6.61511e-06
5.53211e-06
4.8154e-06
4.2816e-06
3.84935e-06
3.48192e-06
3.1612e-06
2.87753e-06
2.62691e-06
2.41282e-06
2.25677e-06
2.27377e-06
3.31409e-06
1.3337e-05
0.000163324
0.000102126
8.22197e-05
7.30104e-05
6.77373e-05
6.39964e-05
6.07724e-05
5.77444e-05
5.48636e-05
5.21476e-05
4.96197e-05
4.73145e-05
4.53052e-05
4.37695e-05
4.31672e-05
4.47398e-05
4.61034e-05
6.30633e-05
0.000339822
0.000220973
0.000178832
0.000157454
0.000144372
0.000135139
0.000127695
0.000121134
0.000115119
0.000109553
0.000104439
9.98481e-05
9.59555e-05
9.31425e-05
9.21835e-05
9.36814e-05
9.18981e-05
0.000106694
0.000504015
0.000350109
0.000285236
0.000249822
0.000227286
0.000211258
0.000198657
0.000187939
0.000178371
0.000169629
0.000161609
0.000154361
0.00014811
0.000143335
0.000140679
0.000138773
0.000130089
0.000140061
0.000629014
0.000471774
0.000391489
0.000343858
0.000312203
0.000289248
0.00027125
0.000256174
0.00024293
0.000230952
0.000219989
0.000210022
0.000201256
0.000194129
0.000188784
0.000181777
0.000165224
0.000167517
0.00071432
0.000575723
0.000490357
0.000434757
0.000395842
0.000366802
0.000343786
0.00032454
0.000307747
0.000292656
0.000278876
0.000266296
0.000255049
0.0002454
0.000236798
0.00022417
0.000199901
0.000192505
0.000768917
0.000658151
0.000576972
0.000518621
0.000475301
0.000441781
0.000414685
0.000391847
0.000371901
0.000354003
0.000337672
0.00032271
0.000309142
0.000296978
0.000284944
0.000266928
0.000235677
0.000217584
0.000802482
0.000719711
0.000648851
0.000592609
0.000548101
0.000512186
0.000482376
0.000456869
0.000434426
0.000414223
0.000395752
0.000378757
0.000363145
0.000348639
0.00033335
0.000310675
0.000273626
0.000244838
0.000822588
0.000763476
0.000705625
0.000655102
0.000612384
0.000576286
0.000545365
0.000518361
0.000494299
0.000472476
0.000452423
0.000433862
0.0004166
0.000400097
0.000382028
0.000355752
0.000314457
0.00027601
0.000834432
0.000793346
0.000748488
0.000705697
0.000667051
0.000632773
0.000602366
0.000575149
0.000550487
0.000527868
0.000506917
0.000487376
0.000468978
0.000450985
0.000430849
0.00040223
0.000358503
0.000312417
0.00084134
0.000813056
0.000779548
0.000745017
0.000711811
0.000680886
0.000652419
0.000626231
0.000602026
0.000579509
0.000558432
0.000538586
0.000519671
0.000500834
0.000479507
0.000449889
0.000405648
0.000354714
0.000845019
0.000824654
0.000799416
0.000771915
0.000744101
0.000717086
0.000691371
0.00066709
0.000644198
0.000622583
0.000602119
0.000582656
0.000563896
0.000544961
0.0005234
0.000494019
0.000450825
0.000398028
0.000847291
0.000832372
0.000813567
0.00079222
0.000769674
0.000746909
0.000724523
0.00070283
0.000681961
0.000661952
0.000642787
0.000624382
0.000606469
0.000588211
0.000567407
0.000539613
0.000499435
0.000448097
0.000848794
0.000837823
0.000824239
0.000808474
0.000791224
0.000773157
0.000754792
0.000736487
0.000718474
0.000700891
0.000683814
0.000667227
0.000650916
0.000634149
0.000615089
0.000590154
0.000554745
0.000507915
0.000849708
0.000841331
0.000831554
0.000820317
0.000807824
0.000794389
0.000780342
0.000765968
0.000751498
0.000737113
0.000722934
0.000708999
0.000695157
0.000680838
0.000664633
0.000643872
0.000614928
0.000575734
0.000850215
0.00084337
0.000836059
0.000828065
0.000819326
0.000809902
0.00079992
0.000789537
0.000778916
0.000768208
0.000757536
0.000746956
0.000736381
0.000725414
0.000713087
0.000697592
0.000676356
0.000647183
0.000850467
0.000844423
0.000838513
0.000832532
0.00082635
0.000819905
0.000813202
0.000806288
0.000799242
0.000792157
0.00078512
0.000778181
0.000771296
0.000764221
0.000756373
0.000746664
0.000733495
0.000715181
0.000850566
0.000844868
0.000839611
0.000834653
0.000829882
0.000825228
0.000820659
0.000816177
0.000811815
0.000807623
0.000803654
0.000799944
0.000796474
0.000793118
0.000789567
0.000785255
0.000779329
0.000770781
0.000850552
0.000844861
0.000839667
0.000834869
0.000830402
0.000826237
0.000822378
0.000818851
0.0008157
0.000812978
0.000810734
0.000809005
0.000807796
0.000807056
0.000806646
0.00080631
0.000805654
0.000804177
0.000850354
0.000844105
0.000838029
0.000832071
0.000826268
0.00082072
0.000815547
0.000810873
0.000806808
0.000803445
0.000800853
0.000799074
0.000798123
0.000797971
0.00079854
0.000799686
0.000801185
0.000802738
0.000849804
0.000841998
0.000833578
0.00082473
0.000815797
0.000807145
0.000799087
0.000791859
0.000785625
0.000780488
0.000776503
0.000773686
0.000772022
0.000771467
0.000771943
0.000773329
0.000775458
0.000778089
0.000848302
0.00083654
0.000822787
0.000808099
0.000793514
0.000779794
0.00076742
0.000756647
0.000747577
0.00074022
0.000734531
0.000730436
0.00072784
0.000726639
0.000726716
0.000727933
0.000730122
0.000733046
0.000844414
0.000823686
0.000799675
0.000775419
0.000752846
0.000732863
0.000715766
0.000701521
0.000689948
0.000680815
0.000673884
0.000668932
0.000665754
0.000664167
0.000663999
0.000665083
0.000667236
0.000670209
0.000834817
0.000796135
0.000755683
0.000719027
0.000687996
0.000662507
0.000641983
0.000625696
0.000612977
0.000603262
0.000596089
0.000591085
0.000587949
0.000586435
0.000586333
0.000587458
0.000589624
0.000592581
0.000812352
0.000743003
0.000682134
0.000633909
0.000596919
0.00056903
0.000547976
0.000532032
0.00052005
0.000511198
0.000504863
0.000500592
0.000498042
0.000496951
0.000497109
0.000498343
0.000500482
0.0005033
0.000763057
0.000651847
0.000574141
0.000520958
0.000483934
0.00045782
0.000439369
0.000426154
0.000416552
0.000409666
0.000404878
0.000401761
0.000400007
0.000399392
0.000399748
0.000400936
0.000402829
0.000405246
0.000664363
0.00051577
0.000435826
0.000388185
0.000357735
0.000337542
0.000323882
0.000314695
0.00030826
0.000303717
0.000300587
0.000298561
0.000297431
0.000297055
0.000297326
0.000298161
0.000299483
0.000301172
0.000493292
0.000344515
0.000282513
0.000249341
0.000229538
0.000217143
0.000209103
0.000203772
0.000200289
0.000197736
0.000195872
0.000194558
0.000193711
0.000193275
0.000193207
0.000193471
0.000194032
0.00019483
0.000262093
0.000170969
0.000137816
0.000120902
0.000111242
0.000105504
0.00010188
9.94316e-05
9.77875e-05
9.64682e-05
9.5398e-05
9.45562e-05
9.39272e-05
9.34968e-05
9.32506e-05
9.31739e-05
9.32517e-05
9.34625e-05
5.96145e-05
4.2551e-05
3.14075e-05
2.41167e-05
1.93337e-05
1.61759e-05
1.40609e-05
1.26096e-05
1.159e-05
1.08784e-05
1.03685e-05
9.99642e-06
9.72393e-06
9.52667e-06
9.38833e-06
9.29751e-06
9.24572e-06
9.22612e-06
3.04772e-05
0.000192903
4.66909e-05
4.7944e-05
4.87397e-05
4.90364e-05
4.8945e-05
4.85534e-05
4.79232e-05
4.71544e-05
4.67867e-05
0.000211955
0.000216781
4.81041e-05
4.77178e-05
4.86932e-05
5.03958e-05
5.23724e-05
5.42052e-05
5.56179e-05
5.64906e-05
5.69357e-05
5.77719e-05
5.94086e-05
6.17575e-05
6.458e-05
6.76163e-05
7.06669e-05
7.36082e-05
7.63749e-05
7.89389e-05
8.12944e-05
8.34473e-05
8.54098e-05
8.71967e-05
8.88237e-05
9.03058e-05
9.16575e-05
9.28921e-05
9.40219e-05
9.5058e-05
9.60108e-05
9.68903e-05
9.77058e-05
9.84671e-05
9.9184e-05
9.98676e-05
0.00010053
0.000101171
0.000101758
0.000102298
0.000102793
0.000103245
0.000103655
0.000104022
0.000104346
0.000104627
0.000104863
0.000105053
0.000105196
0.000105289
0.000105332
0.000105324
0.000105262
0.000105144
0.00010497
0.000104737
0.000104445
0.000104092
0.000103676
0.000103196
0.000102652
0.000102042
0.000101366
0.000100622
9.98111e-05
9.89316e-05
9.79839e-05
9.69685e-05
9.58872e-05
9.47464e-05
9.35672e-05
9.24414e-05
9.17934e-05
9.12227e-05
9.06391e-05
9.00189e-05
8.93545e-05
8.86441e-05
8.78878e-05
8.70871e-05
8.62438e-05
8.53602e-05
8.44384e-05
8.34809e-05
8.24895e-05
8.1466e-05
8.04116e-05
7.93267e-05
7.82115e-05
7.70645e-05
7.58828e-05
7.46669e-05
7.33985e-05
7.19623e-05
7.05132e-05
6.8984e-05
6.73192e-05
6.54682e-05
6.33831e-05
6.10185e-05
5.83387e-05
5.53608e-05
5.20703e-05
4.77894e-05
0.000205076
4.52815e-05
0.000200898
0.000193996
0.000176695
0.000153184
0.000127669
0.000103773
8.39064e-05
6.90186e-05
5.88037e-05
5.2266e-05
4.8291e-05
4.59655e-05
4.46512e-05
4.39392e-05
4.35788e-05
4.34189e-05
4.33684e-05
4.33721e-05
4.33958e-05
4.34183e-05
4.34275e-05
4.34172e-05
4.33858e-05
4.33346e-05
4.32675e-05
4.31891e-05
4.30847e-05
4.29523e-05
4.2794e-05
4.26122e-05
4.24089e-05
4.21863e-05
4.19467e-05
4.16928e-05
4.14277e-05
4.11543e-05
4.08756e-05
4.05937e-05
4.03103e-05
4.00261e-05
3.97412e-05
3.94547e-05
3.91659e-05
3.88744e-05
3.85805e-05
3.82852e-05
3.79898e-05
3.76955e-05
3.74033e-05
3.71133e-05
3.6825e-05
3.65371e-05
3.62476e-05
3.59573e-05
3.56672e-05
3.5374e-05
3.50765e-05
3.47749e-05
3.44711e-05
3.41689e-05
3.38737e-05
3.35746e-05
3.32235e-05
5.22561e-05
0.000117944
0.000167223
0.000204295
0.000230948
0.000248987
0.000260262
0.000266588
0.000269694
0.000271295
0.000269395
0.00027477
0.000272861
0.000263802
0.000265939
0.000272439
0.000279177
0.000283321
0.000284131
0.00028161
0.000276869
0.00027125
0.000265834
0.000261448
0.000258715
0.000257964
0.000259354
0.000262953
0.000268793
0.000276872
0.00028714
0.000299494
0.000313773
0.000329763
0.000347213
0.000365849
0.000385389
0.000405563
0.00042612
0.000446832
0.000467496
0.000487927
0.000507949
0.000527383
0.000546035
0.000563681
0.000580064
0.000594834
0.000607675
0.000620225
0.000632668
0.000645016
0.000657253
0.000669359
0.00068131
0.000693077
0.000704629
0.00071593
0.000726944
0.000737632
0.000747954
0.000757869
0.000767335
0.000776309
0.00078475
0.000792617
0.000799869
0.000806467
0.000812374
0.000817554
0.000821972
0.000825594
0.00082839
0.000830328
0.000831377
0.000831504
0.000830673
0.000828835
0.000825921
0.00082181
0.000816245
0.000808624
0.000797717
0.000784306
0.00076968
0.000754184
0.000737963
0.000721105
0.000703683
0.000685767
0.00066743
0.000648747
0.000629792
0.00061064
0.000591361
0.000572021
0.000552681
0.000533392
0.000514197
0.000495126
0.000476195
0.000457404
0.000438706
0.000419761
0.000397858
0.00037156
0.000343695
0.000315393
0.000287816
0.000262196
0.000239746
0.000221547
0.000208117
0.000198357
0.000191206
0.000197074
0.000192178
0.000211999
0.000224025
0.000226761
0.000220821
0.000208952
0.000194623
0.000180761
0.000169059
0.000159955
0.000153168
0.0001483
0.000145078
0.00014328
0.00014264
0.000142851
0.000143619
0.000144706
0.000145933
0.000147178
0.000148358
0.000149422
0.000150338
0.000151092
0.000151683
0.000152114
0.000152403
0.000152575
0.000152636
0.000152598
0.000152471
0.000152266
0.000151991
0.000151657
0.000151273
0.000150847
0.000150388
0.000149906
0.000149407
0.000148898
0.000148382
0.000147862
0.000147338
0.000146811
0.000146278
0.000145742
0.000145201
0.000144659
0.000144118
0.000143579
0.000143043
0.000142509
0.000141975
0.000141432
0.00014086
0.000140265
0.000139638
0.000138975
0.000138271
0.000137523
0.000136719
0.000135814
0.000134611
0.000132119
7.59911e-05
0.000162815
0.00023904
0.000299897
0.000345978
0.000379065
0.000401161
0.00041417
0.00041982
0.000418408
0.00041233
0.000405285
0.000398807
0.000396085
0.000397922
0.000401962
0.000405502
0.000406579
0.000404534
0.000399961
0.000394395
0.000389718
0.00038768
0.000389646
0.000396537
0.000408858
0.000426786
0.000450235
0.000478882
0.000512185
0.000549409
0.000589675
0.000632038
0.000675564
0.000719408
0.000762861
0.000805375
0.000846565
0.000886181
0.000924088
0.000960224
0.000994575
0.00102715
0.00105797
0.00108705
0.00111441
0.00114008
0.00116384
0.00118671
0.00120916
0.00123129
0.00125309
0.00127455
0.00129561
0.00131623
0.00133634
0.00135589
0.00137481
0.00139302
0.00141046
0.00142705
0.00144271
0.00145737
0.00147095
0.00148337
0.00149457
0.00150447
0.00151302
0.00152014
0.00152578
0.00152989
0.00153242
0.00153332
0.00153254
0.00153004
0.00152577
0.00151969
0.00151173
0.0015018
0.00148975
0.00147535
0.00145819
0.00143771
0.00141448
0.00138943
0.00136289
0.00133506
0.00130609
0.0012761
0.00124521
0.00121356
0.0011813
0.00114854
0.00111543
0.0010821
0.00104866
0.00101522
0.000981875
0.000948685
0.0009157
0.000882933
0.00085036
0.00081787
0.000785099
0.000750826
0.000712409
0.000669945
0.000623792
0.000574668
0.000523896
0.000473576
0.000426477
0.000385295
0.000351583
0.000326588
0.000311794
0.00030266
0.000300432
0.000298368
0.000292973
0.000283411
0.000271012
0.000258218
0.000247419
0.000240004
0.000235943
0.00023413
0.000233313
0.000232855
0.000232754
0.000233212
0.000234309
0.000235954
0.000237965
0.000240151
0.000242353
0.00024445
0.000246363
0.000248041
0.000249459
0.00025061
0.000251497
0.000252145
0.000252593
0.000252857
0.000252953
0.000252901
0.000252718
0.000252421
0.000252024
0.000251544
0.000250994
0.00025039
0.000249745
0.000249071
0.000248379
0.000247675
0.000246965
0.000246249
0.000245529
0.000244804
0.000244073
0.000243337
0.000242599
0.000241861
0.000241125
0.000240393
0.000239664
0.000238931
0.000238186
0.000237407
0.000236582
0.000235699
0.000234749
0.000233725
0.00023262
0.000231417
0.000230059
0.000228295
0.000225339
9.91566e-05
0.00021244
0.000312539
0.00038918
0.000444313
0.000481344
0.000503369
0.000512958
0.000512397
0.000505762
0.000497391
0.000490637
0.000487286
0.000487542
0.000490126
0.000493014
0.000494505
0.000493924
0.000491879
0.000490063
0.000490769
0.000496291
0.000508456
0.000528415
0.000556618
0.000592905
0.000636613
0.00068669
0.000741812
0.00080051
0.000861305
0.000922826
0.0009839
0.0010436
0.00110124
0.0011564
0.00120885
0.0012585
0.00130541
0.00134968
0.00139148
0.00143098
0.00146835
0.00150375
0.00153733
0.0015692
0.00159949
0.00162828
0.00165623
0.0016836
0.00171044
0.00173675
0.0017625
0.00178762
0.00181206
0.00183573
0.00185856
0.00188047
0.00190136
0.00192115
0.00193973
0.00195701
0.0019729
0.0019873
0.00200013
0.00201129
0.00202071
0.00202829
0.00203398
0.00203771
0.0020394
0.00203902
0.0020365
0.0020318
0.00202488
0.00201569
0.00200419
0.00199032
0.001974
0.00195513
0.00193356
0.00190909
0.00188145
0.00185122
0.00181908
0.00178525
0.00174989
0.00171316
0.00167522
0.00163624
0.00159637
0.00155581
0.00151473
0.0014733
0.0014317
0.00139006
0.00134853
0.00130721
0.00126618
0.00122548
0.0011851
0.001145
0.001105
0.00106475
0.00102341
0.00097926
0.000930945
0.000878256
0.000821115
0.000759986
0.00069616
0.000631947
0.000570431
0.000514811
0.000468163
0.000432513
0.000407029
0.000389765
0.000376303
0.000362731
0.000347256
0.000330538
0.000314877
0.000302896
0.00029631
0.000295137
0.000297714
0.000301664
0.000305222
0.000307862
0.000309914
0.000311876
0.000314041
0.00031646
0.000319045
0.000321664
0.000324191
0.000326531
0.000328616
0.000330407
0.000331888
0.000333058
0.000333938
0.000334568
0.000334964
0.000335148
0.000335143
0.000334971
0.000334652
0.000334207
0.000333653
0.000333011
0.000332298
0.000331531
0.000330726
0.000329897
0.000329052
0.000328198
0.000327339
0.000326475
0.000325607
0.000324732
0.000323853
0.00032297
0.000322088
0.000321208
0.000320332
0.000319458
0.000318579
0.000317686
0.000316759
0.000315775
0.000314719
0.000313578
0.000312341
0.000311002
0.000309544
0.000307923
0.000305944
0.000303223
0.000122904
0.000265469
0.000385744
0.000473043
0.000531909
0.000567728
0.000585507
0.000589767
0.000585409
0.000577455
0.000569781
0.000564626
0.000562552
0.000562873
0.000564328
0.000565811
0.000566993
0.000568638
0.000572525
0.000581029
0.000596527
0.000620852
0.000654958
0.000698874
0.000751825
0.000812463
0.000879094
0.000949887
0.00102304
0.00109693
0.00117015
0.00124162
0.00131051
0.0013763
0.00143869
0.00149757
0.00155297
0.00160503
0.00165395
0.00169998
0.00174335
0.00178433
0.00182314
0.00185997
0.00189501
0.00192838
0.0019602
0.00199063
0.00202014
0.00204891
0.00207701
0.00210441
0.0021311
0.002157
0.00218206
0.00220618
0.00222929
0.00225129
0.00227209
0.00229157
0.00230964
0.00232619
0.00234111
0.00235431
0.00236567
0.00237512
0.00238255
0.00238788
0.00239104
0.00239195
0.00239054
0.00238677
0.00238059
0.00237194
0.00236078
0.00234709
0.00233083
0.00231195
0.00229041
0.00226614
0.00223907
0.00220909
0.00217609
0.00214071
0.00210351
0.00206462
0.00202419
0.00198238
0.00193936
0.00189534
0.00185051
0.00180507
0.00175926
0.00171326
0.00166727
0.00162146
0.00157597
0.00153092
0.00148638
0.00144237
0.00139885
0.00135573
0.0013128
0.00126966
0.00122559
0.00117934
0.00112915
0.00107458
0.00101516
0.000950762
0.000881934
0.000810134
0.000737834
0.000668307
0.000605306
0.000552108
0.000510081
0.000478261
0.000453324
0.000431321
0.000409646
0.00038808
0.000368481
0.000353593
0.0003456
0.00034498
0.000350099
0.00035791
0.000365498
0.000371357
0.000375461
0.00037849
0.000381107
0.000383685
0.000386332
0.000389009
0.000391624
0.000394081
0.000396304
0.000398243
0.000399869
0.000401172
0.000402163
0.000402878
0.000403334
0.000403552
0.000403556
0.00040337
0.000403018
0.000402521
0.000401902
0.00040118
0.000400378
0.000399513
0.000398604
0.000397666
0.00039671
0.000395744
0.000394773
0.000393798
0.000392819
0.000391837
0.00039085
0.000389862
0.000388874
0.000387889
0.000386907
0.000385928
0.000384945
0.000383946
0.000382915
0.000381825
0.000380657
0.000379394
0.000378027
0.000376546
0.000374941
0.000373183
0.000371156
0.000368762
0.000147052
0.000313545
0.000450384
0.000546539
0.000608712
0.000644312
0.000659729
0.000661185
0.000654887
0.000645921
0.00063775
0.000632052
0.000629079
0.00062834
0.000629326
0.000632083
0.000637524
0.000647396
0.000663926
0.000689258
0.000724898
0.000771372
0.000828174
0.000893971
0.000966917
0.00104496
0.00112608
0.00120843
0.00129045
0.00137085
0.00144868
0.00152324
0.00159412
0.00166107
0.00172404
0.00178311
0.00183843
0.00189023
0.00193878
0.00198435
0.00202722
0.00206765
0.00210589
0.00214212
0.00217653
0.00220924
0.00224035
0.00227006
0.00229873
0.00232654
0.00235354
0.00237974
0.0024051
0.00242958
0.00245311
0.00247561
0.002497
0.00251718
0.00253604
0.0025535
0.00256943
0.00258374
0.0025963
0.00260703
0.0026158
0.00262252
0.0026271
0.00262945
0.00262949
0.00262715
0.00262236
0.00261506
0.00260522
0.00259278
0.00257771
0.00255999
0.00253959
0.00251647
0.00249063
0.00246203
0.00243063
0.00239639
0.00235929
0.00232007
0.00227917
0.00223672
0.00219284
0.00214772
0.00210156
0.00205456
0.00200697
0.00195902
0.00191095
0.001863
0.00181537
0.00176826
0.00172179
0.00167608
0.00163117
0.00158705
0.00154365
0.00150079
0.00145822
0.00141547
0.00137184
0.0013262
0.00127686
0.00122312
0.00116435
0.00110015
0.00103057
0.000956436
0.000879515
0.000802596
0.000729334
0.000663555
0.000608004
0.000563258
0.000527371
0.000496966
0.000469132
0.000442898
0.00041949
0.000401453
0.000391223
0.000389759
0.000395784
0.0004061
0.000417022
0.000426038
0.000432445
0.00043679
0.000439961
0.000442642
0.000445186
0.000447702
0.000450167
0.000452512
0.000454665
0.000456566
0.000458177
0.000459479
0.00046047
0.000461179
0.000461619
0.000461812
0.000461781
0.000461549
0.000461141
0.000460581
0.00045989
0.000459091
0.000458206
0.000457254
0.000456254
0.000455223
0.000454173
0.000453114
0.000452051
0.000450986
0.00044992
0.000448853
0.000447784
0.000446716
0.000445649
0.000444586
0.000443528
0.000442472
0.000441414
0.000440342
0.000439241
0.000438082
0.000436845
0.000435513
0.000434073
0.000432518
0.00043084
0.000429027
0.000427026
0.000424907
0.000168924
0.000355921
0.000506611
0.00061093
0.00067733
0.000714022
0.000728791
0.000729096
0.000721472
0.000711115
0.000701505
0.000694454
0.000690614
0.000690204
0.000693649
0.000701952
0.000716727
0.000739907
0.000773242
0.000817793
0.00087362
0.000939769
0.00101453
0.00109577
0.0011813
0.00126907
0.0013573
0.00144451
0.00152956
0.00161159
0.00168999
0.00176437
0.00183455
0.00190046
0.00196217
0.00201981
0.00207361
0.00212382
0.0021707
0.00221455
0.00225564
0.00229421
0.00233051
0.00236474
0.00239704
0.00242756
0.00245639
0.00248372
0.00250991
0.0025351
0.00255937
0.00258274
0.00260519
0.00262668
0.00264715
0.00266654
0.00268477
0.00270175
0.00271738
0.00273157
0.00274421
0.00275519
0.00276441
0.00277177
0.00277715
0.00278046
0.00278161
0.0027805
0.00277706
0.00277122
0.0027629
0.00275206
0.00273864
0.00272261
0.00270394
0.00268259
0.00265856
0.00263183
0.00260239
0.00257023
0.00253535
0.00249776
0.00245747
0.00241539
0.00237182
0.00232689
0.00228074
0.00223358
0.00218563
0.00213713
0.00208836
0.0020396
0.0019911
0.00194313
0.0018959
0.00184961
0.00180439
0.00176031
0.00171739
0.00167557
0.0016347
0.00159454
0.00155474
0.00151477
0.00147388
0.00143095
0.00138436
0.00133328
0.00127699
0.00121494
0.00114693
0.00107334
0.000995414
0.000915399
0.000836555
0.000762726
0.000697348
0.000642229
0.000596807
0.000558644
0.000525012
0.000494518
0.000467789
0.000446982
0.000434519
0.000431668
0.000437559
0.000449167
0.000462467
0.000474181
0.000482853
0.000488659
0.000492519
0.000495342
0.000497723
0.000499949
0.000502101
0.00050416
0.000506071
0.000507775
0.000509229
0.000510402
0.000511285
0.000511896
0.000512246
0.000512353
0.000512236
0.00051192
0.000511428
0.000510784
0.000510009
0.000509126
0.000508157
0.000507121
0.000506038
0.000504923
0.000503791
0.000502651
0.000501509
0.000500369
0.000499231
0.000498096
0.000496964
0.000495834
0.000494708
0.000493589
0.000492475
0.000491366
0.000490256
0.000489135
0.00048799
0.00048679
0.000485516
0.000484152
0.000482683
0.000481101
0.000479403
0.000477587
0.000475645
0.000473735
0.000185535
0.000386921
0.000548854
0.000661767
0.00073387
0.000774013
0.000790605
0.000791472
0.000783528
0.000772325
0.000761791
0.000754349
0.000751426
0.000754084
0.00076351
0.000781178
0.000808687
0.000847364
0.000897839
0.000959785
0.00103194
0.00111237
0.00119883
0.00128908
0.00138108
0.00147312
0.00156381
0.00165207
0.00173712
0.00181837
0.00189547
0.0019682
0.00203649
0.00210037
0.00215994
0.00221539
0.00226692
0.00231479
0.00235927
0.00240061
0.00243909
0.00247494
0.00250838
0.00253961
0.00256879
0.00259605
0.00262149
0.00264531
0.00266783
0.00268924
0.00270961
0.00272897
0.00274734
0.00276469
0.00278098
0.00279616
0.00281016
0.0028229
0.00283431
0.0028443
0.00285277
0.00285963
0.00286477
0.0028681
0.00286952
0.00286893
0.00286625
0.00286139
0.00285426
0.0028448
0.00283293
0.00281861
0.00280179
0.00278241
0.00276045
0.00273589
0.00270871
0.00267889
0.00264644
0.00261137
0.00257368
0.00253344
0.00249072
0.00244656
0.00240111
0.00235451
0.00230695
0.00225865
0.00220989
0.00216095
0.00211215
0.00206379
0.00201618
0.00196961
0.00192429
0.00188043
0.00183812
0.00179741
0.00175826
0.00172052
0.00168397
0.00164828
0.00161299
0.00157749
0.00154095
0.00150223
0.00145974
0.00141257
0.00135996
0.00130129
0.0012362
0.00116482
0.00108803
0.00100762
0.00092644
0.000848094
0.000776252
0.000713509
0.000660448
0.000615661
0.000576919
0.000542735
0.000513298
0.000490325
0.000476037
0.000471802
0.000477065
0.000489093
0.000503842
0.000517584
0.00052822
0.000535458
0.000540076
0.000543094
0.000545303
0.000547168
0.000548893
0.000550529
0.000552053
0.00055342
0.000554584
0.000555511
0.000556181
0.000556604
0.000556786
0.000556741
0.000556487
0.000556046
0.000555438
0.000554686
0.000553811
0.000552834
0.000551775
0.000550655
0.000549491
0.000548299
0.000547092
0.00054588
0.000544671
0.000543468
0.000542272
0.000541083
0.0005399
0.000538725
0.000537558
0.000536398
0.000535248
0.000534103
0.000532961
0.000531811
0.000530641
0.000529423
0.000528139
0.00052677
0.000525303
0.00052373
0.000522049
0.000520267
0.000518403
0.000516653
0.00019458
0.000390819
0.000564525
0.000691502
0.000774756
0.000822356
0.000843515
0.000846964
0.000840314
0.00082975
0.000819915
0.000814071
0.000814501
0.000822975
0.000841063
0.000870154
0.000911236
0.000964596
0.00102963
0.0011049
0.00118835
0.00127768
0.00137064
0.00146523
0.00155974
0.00165283
0.00174346
0.00183085
0.00191443
0.00199384
0.00206883
0.00213929
0.0022052
0.00226663
0.0023237
0.00237657
0.00242546
0.0024706
0.00251224
0.00255061
0.00258597
0.00261854
0.00264853
0.00267613
0.0027015
0.00272478
0.00274607
0.00276559
0.00278366
0.00280045
0.00281609
0.00283062
0.00284407
0.00285643
0.00286771
0.00287785
0.00288682
0.00289456
0.00290102
0.00290611
0.00290977
0.0029119
0.00291244
0.00291129
0.00290836
0.00290358
0.00289684
0.00288808
0.00287721
0.00286416
0.00284887
0.00283127
0.0028113
0.00278892
0.00276409
0.00273678
0.00270696
0.00267461
0.00263974
0.00260235
0.00256247
0.00252016
0.00247578
0.00243018
0.00238346
0.0023358
0.00228743
0.00223863
0.00218971
0.00214103
0.00209294
0.00204581
0.00199999
0.00195578
0.00191343
0.00187312
0.00183492
0.00179881
0.00176468
0.00173229
0.0017013
0.00167129
0.00164168
0.00161175
0.0015806
0.00154704
0.00150951
0.00146704
0.00141887
0.00136432
0.00130296
0.00123478
0.0011604
0.00108132
0.000999981
0.000919704
0.000844137
0.000776301
0.000717615
0.000667608
0.000624697
0.000587538
0.000556067
0.000531601
0.000516056
0.000510732
0.000515248
0.000527161
0.000542589
0.000557636
0.00056976
0.000578218
0.00058355
0.000586771
0.000588802
0.00059026
0.000591474
0.000592576
0.000593593
0.000594497
0.000595252
0.000595821
0.000596177
0.000596322
0.00059626
0.000596
0.000595557
0.000594947
0.00059419
0.000593305
0.000592311
0.000591228
0.000590074
0.000588867
0.000587624
0.000586359
0.000585084
0.000583811
0.000582544
0.000581289
0.000580046
0.000578816
0.000577598
0.000576391
0.000575196
0.000574012
0.00057284
0.000571677
0.000570519
0.000569358
0.000568182
0.000566965
0.000565688
0.000564337
0.000562897
0.00056136
0.000559725
0.000558002
0.000556227
0.000554607
0.000176454
0.000325295
0.000545368
0.000703142
0.000803281
0.0008606
0.000887897
0.000895517
0.000891887
0.000883839
0.000876747
0.000874672
0.000880609
0.000896754
0.000924666
0.000965242
0.0010186
0.00108397
0.00115984
0.0012441
0.00133443
0.00142858
0.00152452
0.00162055
0.00171531
0.00180775
0.00189707
0.0019827
0.00206422
0.00214137
0.00221398
0.00228197
0.00234537
0.00240423
0.00245867
0.00250886
0.00255496
0.00259721
0.0026358
0.00267097
0.00270294
0.00273192
0.00275812
0.00278171
0.00280287
0.00282172
0.00283841
0.00285314
0.00286623
0.00287789
0.00288824
0.00289737
0.00290533
0.00291215
0.00291784
0.00292238
0.00292577
0.00292798
0.00292898
0.0029287
0.00292712
0.00292416
0.00291977
0.00291387
0.00290641
0.0028973
0.00288646
0.00287384
0.00285934
0.00284291
0.00282446
0.00280392
0.00278124
0.00275634
0.00272917
0.00269968
0.00266784
0.0026336
0.00259695
0.0025579
0.00251647
0.00247273
0.0024274
0.00238092
0.00233344
0.00228519
0.00223644
0.00218753
0.00213884
0.00209078
0.00204381
0.00199833
0.00195477
0.00191346
0.00187469
0.00183859
0.00180521
0.00177446
0.00174611
0.00171982
0.00169513
0.00167147
0.00164816
0.00162437
0.00159913
0.00157121
0.00153906
0.00150169
0.00145834
0.00140831
0.00135113
0.0012867
0.00121552
0.00113883
0.00105879
0.000978434
0.000901266
0.000830491
0.00076809
0.000714359
0.000668366
0.000629057
0.000596266
0.000570984
0.000554785
0.000548785
0.00055265
0.000564167
0.000579693
0.000595369
0.000608419
0.000617745
0.000623623
0.000626982
0.000628798
0.000629802
0.000630436
0.000630916
0.00063132
0.000631653
0.00063189
0.000631997
0.000631945
0.000631729
0.00063135
0.000630813
0.000630127
0.000629308
0.000628368
0.000627325
0.000626195
0.000624994
0.000623738
0.000622442
0.000621121
0.000619788
0.000618453
0.000617126
0.000615813
0.000614517
0.000613239
0.00061198
0.000610739
0.000609514
0.000608305
0.000607112
0.000605933
0.000604767
0.000603609
0.000602453
0.000601286
0.000600085
0.000598834
0.000597517
0.000596123
0.000594643
0.000593075
0.000591433
0.000589757
0.00058825
0.000204287
0.000383495
0.000579867
0.000728993
0.000830226
0.000892093
0.000924644
0.000937267
0.000938216
0.000934556
0.000932149
0.000935633
0.000948459
0.000972961
0.00101042
0.0010611
0.0011243
0.0011985
0.00128161
0.00137132
0.00146534
0.00156161
0.00165836
0.0017542
0.00184803
0.001939
0.00202649
0.00211004
0.00218933
0.00226415
0.00233437
0.00239994
0.00246087
0.00251722
0.00256909
0.00261662
0.00265996
0.00269929
0.00273482
0.00276674
0.00279524
0.00282054
0.00284282
0.00286225
0.00287902
0.00289326
0.00290512
0.00291481
0.00292268
0.00292892
0.0029337
0.00293713
0.00293929
0.00294024
0.00294002
0.00293865
0.00293616
0.00293254
0.00292779
0.00292191
0.00291487
0.00290664
0.0028972
0.00288649
0.00287448
0.00286111
0.00284632
0.00283004
0.00281221
0.00279275
0.00277158
0.00274862
0.0027238
0.00269701
0.00266819
0.00263725
0.00260411
0.00256874
0.00253106
0.00249108
0.0024488
0.00240446
0.00235882
0.002312
0.00226422
0.00221574
0.00216689
0.00211808
0.00206976
0.00202244
0.00197664
0.00193289
0.00189167
0.00185338
0.00181833
0.00178667
0.00175836
0.00173324
0.00171095
0.00169101
0.00167281
0.00165566
0.00163876
0.00162119
0.0016019
0.00157964
0.00155291
0.00152071
0.00148226
0.00143686
0.00138404
0.00132365
0.00125609
0.00118246
0.00110469
0.00102556
0.000948404
0.000876456
0.000812042
0.000756041
0.000708106
0.000667528
0.000634146
0.0006087
0.000592424
0.000586182
0.000589586
0.000600583
0.00061579
0.000631511
0.000644914
0.000654673
0.000660827
0.000664179
0.000665699
0.000666186
0.000666171
0.000665949
0.000665651
0.000665317
0.000664939
0.000664492
0.000663947
0.000663293
0.000662529
0.000661657
0.000660681
0.000659612
0.000658459
0.000657234
0.00065595
0.00065462
0.000653255
0.000651869
0.000650472
0.000649075
0.000647688
0.000646316
0.000644967
0.000643641
0.000642341
0.000641066
0.000639814
0.000638584
0.000637375
0.000636186
0.000635014
0.000633859
0.000632716
0.00063158
0.000630435
0.000629263
0.000628052
0.000626785
0.000625452
0.000624044
0.00062256
0.000621013
0.000619445
0.000618043
0.000213853
0.000420466
0.000606655
0.00074944
0.000850373
0.000915752
0.000953599
0.000972114
0.00097903
0.000981346
0.000985128