/*--------------------------------*- C++ -*----------------------------------*\
  =========                 |
  \\      /  F ield         | OpenFOAM: The Open Source CFD Toolbox
   \\    /   O peration     | Website:  https://openfoam.org
    \\  /    A nd           | Version:  9
     \\/     M anipulation  |
\*---------------------------------------------------------------------------*/
FoamFile
{
    format      ascii;
    class       volScalarField;
    location    "0.06";
    object      p;
}
// * * * * * * * * * * * * * * * * * * * * * * * * * * * * * * * * * * * * * //

dimensions      [0 2 -2 0 0 0 0];

internalField   nonuniform List<scalar> 
12225
(
0.902946
0.575399
0.480743
0.471
0.467984
0.46936
0.476768
0.48804
0.501796
0.517675
0.535368
0.554392
0.574167
0.593954
0.612939
0.628829
0.641606
0.599575
0.470941
0.488412
0.478032
0.473913
0.471219
0.472446
0.479592
0.490745
0.504533
0.520542
0.538426
0.557685
0.577736
0.597853
0.617379
0.634447
0.650547
0.666162
0.450583
0.501174
0.48477
0.47714
0.474904
0.476392
0.483308
0.494267
0.508032
0.524159
0.542276
0.561888
0.582464
0.603375
0.624226
0.643586
0.667362
0.709066
0.484894
0.507477
0.48609
0.478316
0.477051
0.479068
0.485975
0.496825
0.510559
0.52675
0.545042
0.564995
0.586172
0.608114
0.630693
0.65349
0.682885
0.726941
0.490185
0.500337
0.483449
0.477776
0.477539
0.480203
0.487246
0.498031
0.511687
0.527834
0.546156
0.566287
0.587894
0.610665
0.634632
0.660167
0.692344
0.732708
0.483416
0.491058
0.479911
0.476139
0.476753
0.48005
0.487245
0.497926
0.511407
0.527359
0.545511
0.565562
0.587256
0.610356
0.634905
0.661592
0.694089
0.729737
0.477053
0.483377
0.476091
0.473632
0.474924
0.478746
0.486021
0.496504
0.509668
0.525231
0.542958
0.562595
0.583913
0.606677
0.630825
0.65701
0.687688
0.717856
0.471928
0.476608
0.471801
0.470335
0.472143
0.476327
0.483557
0.493708
0.506377
0.52132
0.538321
0.557144
0.577547
0.599231
0.621972
0.646176
0.673304
0.697524
0.466835
0.47003
0.466979
0.466302
0.46845
0.472803
0.479834
0.489485
0.501452
0.51551
0.531449
0.54902
0.567933
0.587792
0.608191
0.629208
0.651566
0.66973
0.461338
0.463444
0.461651
0.461559
0.463863
0.468181
0.474832
0.483795
0.494827
0.507715
0.522234
0.538105
0.554966
0.572317
0.589582
0.606528
0.623377
0.635523
0.455401
0.456769
0.455819
0.456109
0.458392
0.46247
0.468552
0.476622
0.486478
0.497903
0.510649
0.52439
0.538693
0.552963
0.566494
0.578802
0.589797
0.595979
0.449537
0.450451
0.449976
0.450447
0.452563
0.456244
0.461628
0.46869
0.477248
0.487075
0.497895
0.509341
0.520924
0.531988
0.541755
0.549577
0.555179
0.555888
0.443361
0.443942
0.443754
0.444251
0.446062
0.449196
0.453731
0.459628
0.466713
0.474747
0.483423
0.49234
0.500965
0.508611
0.514473
0.517828
0.518242
0.513815
0.435802
0.436124
0.436061
0.436427
0.437741
0.440073
0.443455
0.447826
0.453012
0.458758
0.464732
0.470501
0.475511
0.479072
0.4804
0.478767
0.473664
0.463855
0.426555
0.426687
0.426557
0.426586
0.427166
0.42839
0.430257
0.432684
0.435489
0.438408
0.441091
0.443096
0.443879
0.442791
0.439122
0.432211
0.421554
0.406353
0.415302
0.415278
0.414883
0.41432
0.413876
0.413643
0.413594
0.413627
0.413559
0.413122
0.411974
0.409695
0.405788
0.399691
0.390818
0.378623
0.362676
0.342436
0.401781
0.401595
0.400733
0.399286
0.397488
0.395422
0.39305
0.390262
0.386881
0.38266
0.377291
0.37041
0.361607
0.350443
0.336478
0.319316
0.29864
0.274092
0.385981
0.385591
0.38406
0.381415
0.37791
0.373645
0.368586
0.362634
0.355641
0.347407
0.337685
0.326194
0.312635
0.296702
0.278109
0.256605
0.231994
0.204061
0.36857
0.367904
0.365475
0.361292
0.355712
0.348894
0.340837
0.331482
0.320736
0.308468
0.294516
0.278701
0.260842
0.240766
0.218324
0.193399
0.165912
0.135785
0.355413
0.354539
0.35123
0.345584
0.33816
0.329202
0.318748
0.30679
0.29329
0.278171
0.261334
0.242667
0.222062
0.199422
0.17467
0.147754
0.118645
0.0873199
0.347751
0.34676
0.34268
0.335777
0.326881
0.316311
0.304134
0.290385
0.275068
0.25814
0.239533
0.219176
0.197
0.172949
0.146983
0.119084
0.0892491
0.0574852
0.343548
0.342549
0.337649
0.329478
0.319257
0.307337
0.293785
0.278686
0.262069
0.243899
0.224125
0.202695
0.179566
0.154703
0.128089
0.0997248
0.0696254
0.0378208
0.341922
0.341203
0.335397
0.32591
0.31451
0.30146
0.286822
0.270736
0.253232
0.234263
0.213777
0.191733
0.168096
0.142846
0.115974
0.0874932
0.0574265
0.0258202
0.342059
0.342153
0.335252
0.324429
0.312023
0.298009
0.282495
0.265706
0.247635
0.228196
0.207329
0.184994
0.161162
0.135812
0.108944
0.0805729
0.0507263
0.019462
0.344013
0.345543
0.336781
0.324509
0.311272
0.29638
0.280126
0.262851
0.244456
0.224791
0.203785
0.181397
0.157592
0.13235
0.105668
0.077565
0.0480676
0.0172438
0.34782
0.352695
0.340139
0.325795
0.311727
0.295952
0.279053
0.261469
0.242948
0.223254
0.202302
0.180044
0.156439
0.131461
0.105105
0.0773897
0.0483387
0.0180301
0.345384
0.362129
0.344969
0.327838
0.312655
0.295953
0.278568
0.260885
0.242442
0.222916
0.202198
0.180233
0.156973
0.132387
0.106468
0.0792336
0.0507026
0.0209592
0.311859
0.360076
0.346557
0.329164
0.312906
0.29536
0.277848
0.260424
0.242323
0.223223
0.202947
0.181442
0.158665
0.134582
0.109187
0.0824986
0.0545338
0.0253699
0.303553
0.338328
0.339043
0.328042
0.311837
0.293703
0.276485
0.259687
0.242201
0.223779
0.204117
0.183197
0.160991
0.137471
0.112638
0.0865136
0.0591212
0.0305364
0.727483
0.448955
0.351439
0.329808
0.312087
0.293327
0.276289
0.25995
0.243058
0.224957
0.205646
0.185085
0.163236
0.140078
0.11561
0.0898545
0.0628418
0.0346682
-0.749742
-0.717935
-0.731611
-0.767689
-0.801001
-0.83687
-0.876676
-0.914456
-0.944477
-0.963755
-0.974383
-0.978689
-0.979448
-0.979248
-0.980676
-0.985924
-0.996445
-1.0129
-1.03533
-1.06352
-1.09718
-1.1363
-1.18152
-1.23468
-1.29879
-1.37836
-1.47865
-1.60465
-1.75991
-1.94574
-2.16078
-2.40118
-2.66106
-2.9333
-3.21025
-3.48444
-3.74909
-3.99841
-4.22773
-4.43353
-4.6133
-4.76539
-4.88884
-4.98337
-5.04967
-5.0891
-5.10214
-5.08658
-5.03939
-4.96079
-4.85375
-4.72022
-4.56178
-4.37984
-4.17576
-3.95101
-3.70712
-3.44575
-3.16868
-2.87782
-2.57522
-2.26301
-1.94344
-1.61886
-1.29165
-0.964276
-0.639209
-0.318933
-0.00591116
0.297439
0.588768
0.865821
1.12646
1.36869
1.59068
1.79078
1.96754
2.11975
2.24639
2.34669
2.42021
2.46716
2.48888
2.48572
2.45725
2.40436
2.32847
2.23129
2.11475
1.98101
1.83244
1.67157
1.50107
1.32368
1.14222
0.95952
0.778417
0.601705
0.432139
0.272421
0.125288
-0.006399
-0.119652
-0.209008
-0.271269
-0.311123
-0.328572
-0.322823
-0.295592
-0.251854
-0.198832
-0.143314
-0.0855958
-0.030972
0.015842
0.0571343
0.12018
0.200059
0.260367
0.302128
0.327422
0.340047
0.343335
0.339719
0.331369
0.320127
0.30739
0.294167
0.281174
0.268899
0.25766
0.24764
0.238921
0.231506
0.225344
0.220347
0.216405
0.213395
0.211193
0.209674
0.208723
0.208258
0.208118
0.208262
0.208611
0.2091
0.209675
0.210294
0.21092
0.211526
0.21209
0.212598
0.21304
0.213412
0.21371
0.213938
0.214098
0.214195
0.214235
0.214223
0.214163
0.214062
0.213925
0.213755
0.21356
0.213345
0.213116
0.212879
0.212642
0.212408
0.21218
0.211964
0.211768
0.2116
0.211472
0.211403
0.211443
0.211632
0.212334
0.213038
-0.804113
-0.793765
-0.806468
-0.839492
-0.878518
-0.916814
-0.951644
-0.980333
-1.00096
-1.01265
-1.0117
-0.999704
-0.980409
-0.958878
-0.939966
-0.927364
-0.922841
-0.926417
-0.937408
-0.955115
-0.979531
-1.0119
-1.05355
-1.10643
-1.17458
-1.26375
-1.38052
-1.53047
-1.71645
-1.93773
-2.19008
-2.4665
-2.75841
-3.05684
-3.35331
-3.64047
-3.91232
-4.16426
-4.39291
-4.59596
-4.77184
-4.91955
-5.03848
-5.12823
-5.18844
-5.2187
-5.21906
-5.19074
-5.13743
-5.06064
-4.9592
-4.83314
-4.68314
-4.51015
-4.31531
-4.09994
-3.86547
-3.6135
-3.34573
-3.06402
-2.77034
-2.46677
-2.1555
-1.83879
-1.51901
-1.19852
-0.879762
-0.565153
-0.257103
0.0420208
0.329916
0.604374
0.863298
1.10473
1.32688
1.52813
1.70706
1.8625
1.9935
2.09942
2.17997
2.23463
2.26201
2.26282
2.23924
2.19241
2.12354
2.03419
1.92619
1.8016
1.66268
1.51185
1.35166
1.18478
1.01392
0.841832
0.671252
0.504904
0.345457
0.195523
0.0576498
-0.0657941
-0.17276
-0.262356
-0.331355
-0.3739
-0.389934
-0.379617
-0.344353
-0.28805
-0.217281
-0.140453
-0.0637901
0.015228
0.0935891
0.167316
0.221069
0.25306
0.284373
0.310225
0.329289
0.340711
0.344789
0.342603
0.335511
0.324958
0.312328
0.298808
0.285303
0.272444
0.260631
0.250082
0.240893
0.233066
0.226548
0.221244
0.21704
0.213808
0.211421
0.209749
0.208673
0.208058
0.207858
0.207943
0.208245
0.2087
0.209252
0.209856
0.210476
0.211083
0.211654
0.212173
0.212629
0.213016
0.213331
0.213576
0.213752
0.213865
0.213921
0.213924
0.213881
0.213796
0.213675
0.213522
0.213343
0.213144
0.21293
0.212707
0.212483
0.212261
0.212057
0.211869
0.2117
0.211561
0.211466
0.211436
0.211523
0.21174
0.21248
0.212901
-0.852649
-0.853902
-0.871229
-0.902523
-0.937392
-0.969101
-0.994643
-1.0123
-1.021
-1.02027
-1.01001
-0.991512
-0.967421
-0.941299
-0.916753
-0.896703
-0.883071
-0.877136
-0.880149
-0.894078
-0.92214
-0.968764
-1.03867
-1.13552
-1.26134
-1.41666
-1.60055
-1.81068
-2.04343
-2.29414
-2.55756
-2.82825
-3.10097
-3.37087
-3.63367
-3.88562
-4.12356
-4.34481
-4.54713
-4.72869
-4.888
-5.02388
-5.13541
-5.22193
-5.28281
-5.31723
-5.32451
-5.30544
-5.26051
-5.19065
-5.09622
-4.97771
-4.83578
-4.67128
-4.48526
-4.27891
-4.05358
-3.81077
-3.55213
-3.27943
-2.99459
-2.69963
-2.39667
-2.08793
-1.77569
-1.4623
-1.15013
-0.84155
-0.538928
-0.244588
0.0392062
0.310281
0.566574
0.806159
1.02727
1.22831
1.40791
1.56491
1.6984
1.80779
1.89278
1.95304
1.98794
1.99789
1.98419
1.9478
1.88986
1.81183
1.71546
1.60273
1.47583
1.33712
1.18907
1.03428
0.875382
0.715059
0.55599
0.400824
0.252158
0.112512
-0.0156982
-0.130253
-0.229089
-0.310329
-0.371467
-0.410478
-0.42627
-0.418867
-0.389082
-0.338593
-0.270462
-0.189326
-0.100412
-0.00697115
0.0820256
0.160505
0.221159
0.264902
0.299156
0.32473
0.342037
0.351277
0.353475
0.349807
0.341499
0.329918
0.316414
0.302154
0.288031
0.27466
0.26242
0.251515
0.242024
0.23394
0.2272
0.221705
0.217336
0.213963
0.211454
0.20968
0.208519
0.20785
0.207588
0.207631
0.207902
0.208335
0.208874
0.209471
0.210089
0.210699
0.211277
0.211806
0.212275
0.212676
0.213006
0.213266
0.213457
0.213584
0.213654
0.213671
0.213642
0.213571
0.213464
0.213326
0.213162
0.212976
0.212776
0.212567
0.212356
0.212151
0.211959
0.211781
0.211629
0.211511
0.211439
0.211432
0.211538
0.211737
0.212437
0.212378
-0.863579
-0.88295
-0.902625
-0.928019
-0.955608
-0.98051
-0.999672
-1.01136
-1.01459
-1.00912
-0.995847
-0.97667
-0.954306
-0.93187
-0.912395
-0.898686
-0.893535
-0.900142
-0.92239
-0.964648
-1.03109
-1.12477
-1.24685
-1.39641
-1.57081
-1.7664
-1.97929
-2.20577
-2.44251
-2.68653
-2.93502
-3.18523
-3.4344
-3.67974
-3.91846
-4.14786
-4.36537
-4.56861
-4.75543
-4.92395
-5.07251
-5.19972
-5.30444
-5.38576
-5.44296
-5.47548
-5.48304
-5.46582
-5.42403
-5.3579
-5.26767
-5.15379
-5.01685
-4.85761
-4.67702
-4.4762
-4.25641
-4.01909
-3.76582
-3.49832
-3.21846
-2.9282
-2.62964
-2.32495
-2.01639
-1.70627
-1.39693
-1.09072
-0.789993
-0.497047
-0.214132
0.0565927
0.313075
0.553397
0.775796
0.978689
1.16069
1.32063
1.45757
1.57085
1.66004
1.72489
1.76532
1.78175
1.77493
1.74575
1.69536
1.62519
1.53694
1.43258
1.31424
1.18424
1.045
0.899074
0.749047
0.597546
0.447188
0.30056
0.160189
0.0285111
-0.092157
-0.199658
-0.292011
-0.367551
-0.424543
-0.461223
-0.476431
-0.470141
-0.442985
-0.396144
-0.331573
-0.252117
-0.161615
-0.0643898
0.0331996
0.124638
0.201764
0.260811
0.303343
0.332221
0.349872
0.358261
0.359223
0.354306
0.344922
0.332479
0.318303
0.303525
0.289011
0.27535
0.262896
0.251831
0.242218
0.234038
0.22722
0.22166
0.217234
0.213813
0.211262
0.209453
0.208262
0.207575
0.207294
0.207325
0.207588
0.208017
0.208555
0.209153
0.209775
0.21039
0.210975
0.211512
0.21199
0.212401
0.212742
0.213012
0.213213
0.213351
0.213431
0.213458
0.213438
0.213377
0.21328
0.213151
0.212996
0.212821
0.21263
0.21243
0.212228
0.212031
0.211845
0.211676
0.211531
0.21142
0.211353
0.211344
0.211433
0.21157
0.212134
0.211648
-0.790414
-0.830906
-0.857283
-0.883853
-0.910573
-0.934005
-0.951714
-0.962467
-0.965904
-0.962654
-0.95429
-0.943082
-0.931798
-0.923518
-0.921517
-0.929338
-0.95089
-0.990371
-1.05183
-1.1384
-1.25152
-1.3905
-1.55284
-1.73491
-1.93289
-2.14329
-2.36322
-2.59033
-2.8226
-3.05815
-3.2951
-3.53147
-3.76521
-3.99418
-4.21624
-4.42924
-4.63109
-4.81982
-4.99356
-5.15061
-5.2894
-5.40858
-5.50694
-5.58345
-5.63729
-5.66779
-5.67455
-5.65743
-5.61638
-5.55147
-5.4629
-5.35103
-5.21636
-5.0596
-4.88162
-4.68346
-4.46633
-4.2316
-3.98081
-3.71564
-3.4379
-3.14954
-2.85262
-2.5493
-2.24181
-1.93245
-1.62355
-1.31744
-1.01648
-0.722944
-0.439088
-0.167063
0.0910823
0.333432
0.558224
0.76387
0.948975
1.11236
1.25305
1.37034
1.46372
1.5329
1.57789
1.59913
1.59734
1.57344
1.52857
1.46416
1.3819
1.28373
1.17176
1.04828
0.915701
0.776517
0.633287
0.488588
0.344987
0.205012
0.0711217
-0.0543218
-0.169083
-0.271089
-0.358462
-0.429616
-0.48306
-0.517393
-0.531787
-0.526037
-0.500497
-0.456025
-0.394027
-0.316543
-0.226373
-0.126889
-0.0231367
0.0775078
0.166515
0.238179
0.291068
0.326847
0.348418
0.358678
0.360224
0.355225
0.345503
0.332679
0.318172
0.303149
0.288478
0.274736
0.262258
0.251206
0.241624
0.233485
0.226708
0.221187
0.216796
0.213404
0.210878
0.20909
0.207918
0.207248
0.20698
0.207023
0.207298
0.207737
0.208283
0.20889
0.209519
0.210141
0.210732
0.211276
0.211761
0.212179
0.212526
0.212803
0.213011
0.213155
0.213241
0.213274
0.213261
0.213206
0.213114
0.212992
0.212843
0.212673
0.212488
0.212294
0.212097
0.211904
0.21172
0.211552
0.211407
0.211292
0.211216
0.211185
0.211232
0.211286
0.211688
0.210873
-0.636567
-0.693603
-0.736425
-0.771934
-0.80355
-0.830375
-0.851253
-0.866006
-0.875422
-0.881147
-0.885481
-0.891173
-0.901263
-0.919026
-0.947958
-0.991718
-1.05389
-1.1375
-1.24443
-1.37495
-1.52768
-1.69992
-1.8883
-2.08945
-2.30035
-2.51848
-2.7418
-2.96861
-3.19739
-3.42671
-3.65513
-3.88119
-4.10334
-4.31994
-4.52931
-4.72973
-4.91946
-5.09678
-5.26003
-5.40763
-5.53811
-5.65011
-5.74243
-5.81401
-5.86395
-5.89151
-5.89619
-5.87766
-5.83574
-5.7704
-5.68175
-5.57006
-5.4358
-5.2796
-5.10225
-4.90475
-4.68824
-4.45407
-4.20373
-3.93885
-3.66124
-3.37283
-3.07565
-2.77185
-2.46366
-2.15338
-1.84333
-1.53585
-1.23328
-0.937925
-0.652023
-0.377732
-0.117102
0.12795
0.355658
0.56443
0.752864
0.919764
1.06415
1.18529
1.28266
1.35594
1.40516
1.43076
1.43348
1.41423
1.37417
1.31471
1.23756
1.14462
1.03802
0.920028
0.793034
0.659517
0.522004
0.383034
0.245129
0.110764
-0.0176623
-0.137854
-0.247648
-0.345043
-0.428244
-0.495703
-0.54606
-0.578182
-0.591429
-0.585532
-0.560749
-0.517747
-0.457608
-0.381873
-0.292668
-0.192813
-0.0867777
0.0188246
0.116338
0.199153
0.263467
0.308859
0.337345
0.351977
0.355981
0.352218
0.34306
0.330475
0.316085
0.301158
0.286604
0.273005
0.260691
0.249811
0.240398
0.232415
0.22578
0.220383
0.2161
0.2128
0.210351
0.208628
0.207509
0.206884
0.206654
0.206727
0.207027
0.207486
0.208048
0.208668
0.209307
0.209937
0.210535
0.211084
0.211573
0.211994
0.212345
0.212626
0.212838
0.212986
0.213076
0.213112
0.213102
0.21305
0.212962
0.212843
0.212697
0.212531
0.212349
0.212158
0.211962
0.211769
0.211585
0.211413
0.211261
0.211134
0.211037
0.210974
0.210966
0.210928
0.211173
0.210115
-0.422106
-0.498808
-0.562489
-0.612206
-0.653411
-0.687807
-0.716054
-0.739541
-0.760444
-0.781506
-0.805805
-0.836561
-0.876992
-0.930244
-0.999287
-1.08669
-1.19427
-1.32274
-1.47152
-1.63884
-1.82211
-2.01841
-2.22489
-2.43902
-2.65865
-2.88199
-3.10758
-3.33415
-3.56055
-3.78569
-4.00845
-4.22765
-4.44203
-4.65024
-4.85085
-5.04238
-5.2233
-5.39209
-5.54724
-5.6873
-5.81088
-5.91669
-6.00354
-6.07038
-6.11629
-6.14048
-6.1424
-6.12162
-6.07787
-6.01103
-5.92115
-5.80845
-5.67331
-5.51631
-5.33821
-5.13993
-4.92261
-4.68753
-4.43615
-4.1701
-3.89116
-3.60125
-3.3024
-2.99676
-2.68656
-2.3741
-2.06171
-1.75176
-1.44657
-1.14846
-0.859687
-0.582405
-0.318671
-0.070405
0.160623
0.372819
0.564775
0.73529
0.883383
1.0083
1.10953
1.18676
1.24004
1.26981
1.27679
1.26189
1.22625
1.17131
1.09876
1.01053
0.908718
0.795605
0.673573
0.545087
0.41265
0.27877
0.145927
0.016547
-0.107027
-0.222558
-0.327943
-0.421244
-0.500725
-0.564889
-0.612469
-0.642478
-0.654353
-0.647832
-0.623116
-0.580768
-0.521705
-0.447226
-0.359122
-0.259874
-0.15325
-0.0447389
0.0588423
0.150607
0.22532
0.280714
0.317453
0.338137
0.346189
0.34497
0.337375
0.325777
0.31206
0.297644
0.283519
0.270306
0.258345
0.247787
0.238664
0.23094
0.22453
0.219328
0.215212
0.212052
0.209722
0.208097
0.207059
0.206502
0.206325
0.206443
0.206777
0.207264
0.207847
0.208482
0.209132
0.20977
0.210373
0.210926
0.211417
0.21184
0.212193
0.212474
0.212688
0.212837
0.212927
0.212965
0.212956
0.212905
0.212818
0.2127
0.212556
0.212391
0.21221
0.212019
0.211823
0.211628
0.211439
0.211259
0.211095
0.21095
0.210827
0.210723
0.210653
0.210523
0.210622
0.209388
-0.188139
-0.282496
-0.37088
-0.439574
-0.493466
-0.537757
-0.576017
-0.611548
-0.647925
-0.68892
-0.738238
-0.79928
-0.874969
-0.967635
-1.07888
-1.20943
-1.35897
-1.52624
-1.70914
-1.90517
-2.11169
-2.32622
-2.54659
-2.77099
-2.9979
-3.2261
-3.45452
-3.68222
-3.90829
-4.13183
-4.35187
-4.56739
-4.77727
-4.98033
-5.17531
-5.36088
-5.53569
-5.69836
-5.84751
-5.98179
-6.09992
-6.20066
-6.28286
-6.3455
-6.38765
-6.40852
-6.4075
-6.38412
-6.33806
-6.26913
-6.17734
-6.06285
-5.926
-5.76731
-5.58749
-5.38745
-5.16828
-4.93123
-4.67775
-4.40946
-4.12811
-3.83564
-3.53408
-3.22558
-2.91238
-2.59681
-2.2812
-1.96793
-1.65936
-1.35781
-1.06554
-0.784721
-0.517413
-0.265541
-0.0308748
0.18499
0.380647
0.554896
0.706756
0.835478
0.940541
1.02167
1.07892
1.11276
1.12387
1.11314
1.08171
1.03105
0.962828
0.87899
0.781649
0.673079
0.555664
0.431856
0.304141
0.174995
0.0468614
-0.0778836
-0.196948
-0.308148
-0.409434
-0.49892
-0.574918
-0.635976
-0.680892
-0.708742
-0.71902
-0.711472
-0.686266
-0.643901
-0.585206
-0.511361
-0.423979
-0.325273
-0.218462
-0.108202
-0.00055793
0.0977783
0.180948
0.245411
0.290527
0.318083
0.331275
0.333674
0.328562
0.318686
0.306207
0.292731
0.279359
0.266774
0.255349
0.245255
0.236534
0.229154
0.22304
0.21809
0.214187
0.211207
0.209026
0.207525
0.20659
0.206115
0.206006
0.206177
0.206553
0.207071
0.207678
0.20833
0.208992
0.209637
0.210244
0.210798
0.211289
0.211711
0.212062
0.212343
0.212555
0.212703
0.212792
0.212829
0.212818
0.212767
0.212679
0.212561
0.212417
0.212251
0.21207
0.211877
0.211679
0.211479
0.211282
0.211092
0.210912
0.210744
0.210589
0.21044
0.210305
0.210087
0.210052
0.208701
0.0102931
-0.0976848
-0.207186
-0.293035
-0.357687
-0.410621
-0.458936
-0.507788
-0.561683
-0.624893
-0.701254
-0.793846
-0.90477
-1.03505
-1.1846
-1.35238
-1.53648
-1.73452
-1.94387
-2.16199
-2.38657
-2.61567
-2.84765
-3.08121
-3.31528
-3.54894
-3.78138
-4.01182
-4.23949
-4.46357
-4.68321
-4.89746
-5.10532
-5.30571
-5.49749
-5.67944
-5.85034
-6.00891
-6.15389
-6.28403
-6.39809
-6.49493
-6.57343
-6.63259
-6.6715
-6.68937
-6.68556
-6.6596
-6.6111
-6.53986
-6.44584
-6.32915
-6.1901
-6.02917
-5.84705
-5.64461
-5.42291
-5.18319
-4.92689
-4.65561
-4.37112
-4.07534
-3.77033
-3.45826
-3.14138
-2.82204
-2.50259
-2.18544
-1.87296
-1.5675
-1.27132
-0.98661
-0.71543
-0.459709
-0.221215
-0.00153742
0.197923
0.375973
0.531642
0.664185
0.773086
0.8581
0.919321
0.957201
0.972386
0.965757
0.938481
0.892004
0.828031
0.748494
0.655518
0.551381
0.438464
0.319214
0.196096
0.0715588
-0.0519967
-0.17224
-0.286929
-0.393931
-0.491241
-0.577016
-0.649606
-0.707593
-0.749812
-0.775378
-0.783817
-0.774883
-0.748727
-0.705809
-0.646907
-0.573132
-0.485988
-0.387513
-0.280581
-0.169276
-0.0589934
0.0440122
0.133752
0.205922
0.258824
0.293347
0.312212
0.318935
0.31701
0.309469
0.298731
0.286588
0.274269
0.262539
0.251823
0.242321
0.234099
0.22714
0.22138
0.216729
0.213075
0.210304
0.208297
0.206939
0.206121
0.205741
0.205707
0.205938
0.206359
0.206912
0.207543
0.208212
0.208884
0.209534
0.210143
0.210696
0.211185
0.211604
0.211951
0.212227
0.212436
0.21258
0.212667
0.2127
0.212688
0.212634
0.212544
0.212424
0.212278
0.212111
0.211927
0.211732
0.211529
0.211322
0.211116
0.210912
0.210714
0.21052
0.21033
0.210134
0.209933
0.209632
0.209476
0.208055
0.123062
0.0462613
-0.0745073
-0.178553
-0.253487
-0.315622
-0.375744
-0.439967
-0.513085
-0.59938
-0.702396
-0.824566
-0.966976
-1.12935
-1.31026
-1.50742
-1.71812
-1.93952
-2.16898
-2.40417
-2.64315
-2.88436
-3.12655
-3.36872
-3.61002
-3.8497
-4.08709
-4.32148
-4.55217
-4.77841
-4.99938
-5.21421
-5.42196
-5.62162
-5.81214
-5.99238
-6.1612
-6.31741
-6.45983
-6.58728
-6.6986
-6.79268
-6.86846
-6.92496
-6.9613
-6.97668
-6.97046
-6.94216
-6.89137
-6.81786
-6.72155
-6.60254
-6.46111
-6.2977
-6.11299
-5.9078
-5.68319
-5.4404
-5.18085
-4.90614
-4.61805
-4.31852
-4.00962
-3.69353
-3.37255
-3.04903
-2.72538
-2.40401
-2.08734
-1.7777
-1.47741
-1.18864
-0.913461
-0.653806
-0.411431
-0.187919
0.0153436
0.19718
0.356632
0.492968
0.605685
0.694579
0.759778
0.801701
0.820974
0.81848
0.795392
0.753159
0.69349
0.618319
0.529775
0.430138
0.321788
0.207159
0.0886982
-0.0311795
-0.150115
-0.265824
-0.376118
-0.478907
-0.572229
-0.654274
-0.723419
-0.778271
-0.817686
-0.840801
-0.847162
-0.836531
-0.809049
-0.765154
-0.705595
-0.631444
-0.544141
-0.445619
-0.338537
-0.226571
-0.114565
-0.00829026
0.0863986
0.16482
0.224523
0.265593
0.290176
0.301553
0.303257
0.298498
0.289895
0.279413
0.268406
0.257731
0.247874
0.239079
0.231441
0.224967
0.219611
0.215294
0.211919
0.209379
0.207563
0.206361
0.20567
0.205393
0.20544
0.205732
0.206201
0.206788
0.207444
0.208128
0.208809
0.209462
0.21007
0.21062
0.211103
0.211516
0.211856
0.212126
0.212329
0.212468
0.212549
0.212578
0.212561
0.212504
0.212411
0.212288
0.212139
0.211969
0.211782
0.211582
0.211373
0.211158
0.210941
0.210722
0.210503
0.210282
0.210056
0.209812
0.209547
0.20917
0.208905
0.207449
0.211949
0.128568
0.0228291
-0.0818764
-0.170755
-0.249805
-0.327744
-0.410926
-0.504612
-0.613312
-0.740409
-0.887811
-1.05581
-1.24325
-1.44788
-1.66684
-1.8971
-2.13579
-2.38041
-2.62888
-2.87952
-3.13103
-3.38234
-3.63261
-3.88109
-4.12711
-4.37002
-4.60918
-4.8439
-5.07344
-5.29704
-5.51384
-5.72295
-5.92341
-6.11419
-6.29426
-6.4625
-6.61781
-6.75905
-6.88511
-6.99487
-7.08727
-7.16129
-7.21599
-7.25048
-7.26399
-7.25588
-7.22565
-7.17288
-7.09734
-6.99893
-6.8777
-6.73393
-6.56804
-6.38067
-6.17266
-5.94503
-5.69902
-5.43606
-5.15774
-4.86586
-4.56238
-4.24939
-3.9291
-3.60384
-3.27599
-2.948
-2.6223
-2.30134
-1.98749
-1.68305
-1.39023
-1.1111
-0.847573
-0.601404
-0.374158
-0.167199
0.0183151
0.181449
0.321484
0.437956
0.530705
0.599876
0.645852
0.669251
0.670966
0.652171
0.614316
0.559108
0.488479
0.404559
0.309621
0.206038
0.0962314
-0.0173805
-0.132418
-0.246567
-0.357596
-0.463365
-0.561829
-0.651063
-0.72928
-0.794879
-0.84648
-0.882953
-0.903444
-0.907514
-0.894929
-0.865826
-0.820631
-0.76008
-0.685225
-0.597474
-0.498697
-0.391409
-0.279001
-0.165893
-0.0574071
0.0408655
0.124138
0.18949
0.236368
0.266352
0.282386
0.28791
0.2862
0.280006
0.271428
0.261938
0.25248
0.243608
0.235615
0.228632
0.222696
0.217783
0.213831
0.210756
0.208463
0.20685
0.205813
0.205255
0.205083
0.205213
0.205569
0.206085
0.206705
0.207382
0.208079
0.208766
0.20942
0.210024
0.210567
0.211042
0.211446
0.211777
0.212038
0.212232
0.212363
0.212438
0.212461
0.212439
0.212376
0.212279
0.212152
0.211999
0.211825
0.211634
0.211428
0.211212
0.210988
0.210759
0.210524
0.210283
0.210034
0.209771
0.209479
0.209155
0.208709
0.208346
0.206883
0.266446
0.163057
0.0535517
-0.049627
-0.143799
-0.233787
-0.325418
-0.424179
-0.535037
-0.662151
-0.808432
-0.975216
-1.16221
-1.36775
-1.5892
-1.82354
-2.06771
-2.31897
-2.57498
-2.83384
-3.09402
-3.35433
-3.61379
-3.87161
-4.12705
-4.37946
-4.6282
-4.87261
-5.112
-5.34564
-5.57277
-5.79255
-6.00411
-6.2065
-6.39875
-6.57984
-6.74871
-6.9043
-7.04552
-7.17128
-7.28053
-7.37224
-7.4454
-7.49911
-7.5325
-7.54479
-7.53537
-7.50372
-7.44943
-7.37223
-7.27203
-7.14886
-7.00298
-6.8348
-6.64494
-6.43423
-6.20368
-5.95454
-5.68822
-5.40635
-5.11073
-4.80334
-4.48629
-4.16184
-3.83234
-3.50022
-3.16795
-2.83801
-2.51287
-2.19492
-1.8865
-1.5898
-1.30689
-1.0397
-0.789941
-0.55917
-0.348721
-0.159723
0.00691015
0.150491
0.270616
0.367158
0.440252
0.490267
0.517826
0.523829
0.509452
0.47614
0.425594
0.359741
0.280697
0.190727
0.0921888
-0.0125212
-0.121016
-0.230959
-0.340088
-0.446226
-0.547283
-0.64126
-0.726258
-0.800516
-0.862443
-0.910667
-0.944061
-0.961781
-0.96339
-0.948659
-0.917725
-0.871009
-0.809243
-0.733471
-0.645091
-0.545936
-0.438428
-0.325758
-0.212028
-0.102169
-0.00145591
0.0853934
0.155215
0.206996
0.241821
0.262264
0.271581
0.273018
0.269384
0.26287
0.25504
0.246919
0.239127
0.23201
0.225739
0.220383
0.215943
0.212378
0.20962
0.207584
0.206181
0.205313
0.204891
0.204826
0.205038
0.205455
0.206016
0.206666
0.207362
0.208069
0.208757
0.209408
0.210004
0.210538
0.211001
0.211392
0.211712
0.211961
0.212145
0.212266
0.212332
0.212348
0.212319
0.212251
0.212148
0.212016
0.211859
0.21168
0.211483
0.211271
0.211047
0.210814
0.210571
0.210319
0.210056
0.209778
0.209479
0.209143
0.208762
0.208256
0.207804
0.206353
0.247732
0.131362
0.0219481
-0.0773914
-0.171231
-0.265393
-0.364512
-0.473281
-0.595975
-0.736057
-0.895784
-1.07593
-1.27579
-1.49343
-1.72612
-1.97085
-2.22468
-2.48498
-2.74955
-3.01657
-3.28459
-3.55245
-3.81917
-4.08393
-4.346
-4.60468
-4.85929
-5.10917
-5.35359
-5.59182
-5.82308
-6.04652
-6.26129
-6.46645
-6.66104
-6.84407
-7.01451
-7.17132
-7.31344
-7.43983
-7.54945
-7.6413
-7.71441
-7.76788
-7.80086
-7.8126
-7.80246
-7.76994
-7.71463
-7.63624
-7.53467
-7.40996
-7.26233
-7.0922
-6.90016
-6.68705
-6.45388
-6.20187
-5.93246
-5.64729
-5.34817
-5.03711
-4.71625
-4.38788
-4.05438
-3.71824
-3.38195
-3.04803
-2.71898
-2.39723
-2.0851
-1.78483
-1.49846
-1.22791
-0.974877
-0.740884
-0.527236
-0.33503
-0.165145
-0.0182081
0.10542
0.205627
0.282544
0.336544
0.368262
0.378604
0.368746
0.340125
0.294431
0.233577
0.159664
0.0749364
-0.0182739
-0.117601
-0.220699
-0.325282
-0.429147
-0.530175
-0.626327
-0.715646
-0.796263
-0.866433
-0.924573
-0.969314
-0.999527
-1.01437
-1.01341
-0.996421
-0.963534
-0.915174
-0.852077
-0.775289
-0.686209
-0.586655
-0.478988
-0.366263
-0.252335
-0.141804
-0.0396224
0.0496672
0.122826
0.178545
0.21751
0.241937
0.254847
0.259384
0.258349
0.253975
0.247888
0.241181
0.234534
0.228344
0.222826
0.218079
0.214134
0.21097
0.208538
0.206767
0.205575
0.204879
0.204591
0.20463
0.204922
0.205398
0.205999
0.206675
0.207386
0.208097
0.208783
0.209426
0.210011
0.210531
0.210979
0.211356
0.21166
0.211895
0.212066
0.212176
0.212232
0.212238
0.212201
0.212126
0.212017
0.21188
0.211717
0.211533
0.21133
0.211111
0.210879
0.210635
0.210379
0.21011
0.209825
0.209519
0.209185
0.208807
0.208374
0.207814
0.207283
0.205857
0.167961
0.0574175
-0.0442463
-0.139673
-0.231293
-0.325568
-0.427919
-0.54244
-0.67255
-0.820956
-0.989298
-1.17791
-1.38582
-1.61103
-1.85085
-2.10237
-2.36279
-2.6296
-2.90065
-3.17416
-3.4487
-3.72306
-3.99624
-4.26736
-4.53564
-4.80034
-5.06073
-5.31609
-5.56569
-5.80874
-6.04446
-6.272
-6.49047
-6.69896
-6.8965
-7.08213
-7.25482
-7.41355
-7.5573
-7.68503
-7.79574
-7.88843
-7.96216
-8.01605
-8.04927
-8.06105
-8.05077
-8.01794
-7.96212
-7.88306
-7.78061
-7.65482
-7.50591
-7.33427
-7.1405
-6.92543
-6.69006
-6.43562
-6.16355
-5.87551
-5.57333
-5.25902
-4.93477
-4.60291
-4.26585
-3.9261
-3.58622
-3.24875
-2.91622
-2.59109
-2.2757
-1.97227
-1.68287
-1.40937
-1.15347
-0.916637
-0.700151
-0.505072
-0.332218
-0.182163
-0.0552472
0.0484342
0.129022
0.186907
0.222735
0.237417
0.232125
0.20829
0.167587
0.111907
0.0433297
-0.0359295
-0.123571
-0.217269
-0.31473
-0.413725
-0.512115
-0.607843
-0.698926
-0.783446
-0.859564
-0.925548
-0.979823
-1.02102
-1.048
-1.05992
-1.05635
-1.03707
-1.0022
-0.952171
-0.88773
-0.809935
-0.720193
-0.62032
-0.512644
-0.400119
-0.286411
-0.175836
-0.0730327
0.0176865
0.0931293
0.151826
0.194164
0.222041
0.238223
0.245699
0.247205
0.244971
0.240656
0.235398
0.22993
0.224696
0.219952
0.215833
0.212394
0.20964
0.207538
0.206032
0.205053
0.204524
0.204367
0.204507
0.204873
0.205402
0.206039
0.206736
0.207455
0.208166
0.208845
0.209475
0.210045
0.210547
0.210977
0.211334
0.211621
0.21184
0.211995
0.212092
0.212136
0.212132
0.212086
0.212003
0.211887
0.211743
0.211574
0.211384
0.211175
0.21095
0.210709
0.210454
0.210184
0.209898
0.209592
0.20926
0.208893
0.208475
0.207996
0.207388
0.206787
0.205394
0.0473851
-0.0298873
-0.115442
-0.205013
-0.294676
-0.388967
-0.493618
-0.612146
-0.747281
-0.901165
-1.075
-1.26886
-1.48169
-1.71152
-1.95581
-2.21181
-2.47683
-2.74844
-3.02454
-3.30337
-3.58342
-3.86347
-4.14243
-4.41937
-4.69344
-4.96384
-5.2298
-5.49054
-5.74528
-5.99322
-6.23354
-6.46537
-6.68782
-6.89997
-7.10086
-7.28951
-7.46491
-7.62607
-7.77195
-7.90156
-8.01389
-8.10797
-8.18287
-8.23773
-8.27171
-8.28407
-8.27418
-8.24155
-8.18576
-8.10653
-8.00373
-7.87738
-7.72771
-7.55509
-7.36014
-7.14365
-6.90664
-6.65034
-6.37619
-6.08586
-5.7812
-5.46424
-5.13721
-4.80244
-4.46241
-4.11965
-3.77675
-3.43631
-3.10088
-2.77292
-2.45481
-2.14877
-1.85685
-1.58091
-1.3226
-1.08338
-0.864477
-0.666897
-0.491406
-0.338545
-0.208623
-0.101716
-0.0176605
0.0439504
0.0837759
0.10273
0.101983
0.0829528
0.0472965
-0.00311691
-0.0662385
-0.139886
-0.221801
-0.309707
-0.401366
-0.494617
-0.587389
-0.677691
-0.763596
-0.843228
-0.914776
-0.976525
-1.0269
-1.06454
-1.08829
-1.09732
-1.09118
-1.06964
-1.03284
-0.981219
-0.915521
-0.836828
-0.746562
-0.646551
-0.539101
-0.427095
-0.314042
-0.204016
-0.101356
-0.0101118
0.0666511
0.127409
0.172346
0.203086
0.222141
0.232313
0.236228
0.236073
0.233506
0.229695
0.225411
0.221141
0.217179
0.213692
0.210764
0.20842
0.206647
0.205403
0.204631
0.204264
0.204232
0.204466
0.204899
0.205474
0.206139
0.20685
0.207572
0.208276
0.208943
0.209556
0.210105
0.210585
0.210992
0.211328
0.211594
0.211794
0.211932
0.212014
0.212044
0.212029
0.211972
0.211881
0.211757
0.211606
0.211431
0.211235
0.211019
0.210786
0.210537
0.210272
0.209989
0.209686
0.209359
0.209002
0.208605
0.208151