/*--------------------------------*- C++ -*----------------------------------*\
  =========                 |
  \\      /  F ield         | OpenFOAM: The Open Source CFD Toolbox
   \\    /   O peration     | Website:  https://openfoam.org
    \\  /    A nd           | Version:  9
     \\/     M anipulation  |
\*---------------------------------------------------------------------------*/
FoamFile
{
    format      ascii;
    class       surfaceScalarField;
    location    "0.06";
    object      phi;
}
// * * * * * * * * * * * * * * * * * * * * * * * * * * * * * * * * * * * * * //

dimensions      [0 3 -1 0 0 0 0];

internalField   nonuniform List<scalar> 
24170
(
3.06014e-07
1.28263e-08
2.65179e-07
4.08355e-08
2.33282e-07
3.18967e-08
2.07423e-07
2.58596e-08
1.86846e-07
2.05761e-08
1.7047e-07
1.63766e-08
1.56243e-07
1.42269e-08
1.42811e-07
1.34316e-08
1.29563e-07
1.32479e-08
1.16293e-07
1.32707e-08
1.03005e-07
1.32873e-08
8.98847e-08
1.31207e-08
7.73425e-08
1.25422e-08
6.61691e-08
1.11734e-08
5.79717e-08
8.19732e-09
5.78157e-08
1.56042e-10
7.68483e-08
-1.90326e-08
5.47717e-08
2.20766e-08
3.45274e-07
9.2775e-09
3.36271e-07
4.98384e-08
3.20344e-07
4.78233e-08
3.03389e-07
4.2815e-08
2.86778e-07
3.71872e-08
2.70878e-07
3.22766e-08
2.55576e-07
2.95288e-08
2.40406e-07
2.86012e-08
2.24932e-07
2.87223e-08
2.08854e-07
2.93481e-08
1.92032e-07
3.01099e-08
1.74497e-07
3.06555e-08
1.56495e-07
3.05441e-08
1.38606e-07
2.90623e-08
1.21877e-07
2.49261e-08
1.09507e-07
1.25267e-08
9.47606e-08
-4.2866e-09
1.01861e-07
4.76709e-08
3.64461e-07
1.10681e-08
3.65655e-07
4.86447e-08
3.59309e-07
5.41687e-08
3.49316e-07
5.28081e-08
3.37075e-07
4.94287e-08
3.23577e-07
4.57742e-08
3.09432e-07
4.36741e-08
2.94722e-07
4.33107e-08
2.79284e-07
4.41608e-08
2.62901e-07
4.57307e-08
2.45401e-07
4.76105e-08
2.26691e-07
4.9365e-08
2.06783e-07
5.04519e-08
1.85817e-07
5.00288e-08
1.64166e-07
4.65767e-08
1.41463e-07
3.52297e-08
1.10381e-07
2.67961e-08
1.36897e-07
7.53448e-08
3.91555e-07
1.20515e-08
3.93791e-07
4.64087e-08
3.9119e-07
5.67704e-08
3.84858e-07
5.91402e-08
3.75662e-07
5.86248e-08
3.64375e-07
5.70608e-08
3.51662e-07
5.63869e-08
3.37817e-07
5.71563e-08
3.22851e-07
5.91263e-08
3.06647e-07
6.19353e-08
2.89042e-07
6.5215e-08
2.69873e-07
6.85339e-08
2.48973e-07
7.13524e-08
2.26149e-07
7.28529e-08
2.01146e-07
7.15794e-08
1.72052e-07
6.43235e-08
1.34446e-07
6.44025e-08
1.66392e-07
1.04951e-07
4.20531e-07
1.22335e-08
4.22707e-07
4.4232e-08
4.21791e-07
5.76873e-08
4.17616e-07
6.33153e-08
4.10569e-07
6.56717e-08
4.01112e-07
6.65176e-08
3.89783e-07
6.7716e-08
3.76915e-07
7.00239e-08
3.62607e-07
7.34338e-08
3.46807e-07
7.77355e-08
3.29374e-07
8.26478e-08
3.10103e-07
8.78053e-08
2.8871e-07
9.27457e-08
2.64791e-07
9.67717e-08
2.377e-07
9.86702e-08
2.05237e-07
9.67868e-08
1.65358e-07
1.04281e-07
1.9372e-07
1.3803e-07
4.50968e-07
1.21743e-08
4.53002e-07
4.21974e-08
4.5294e-07
5.77502e-08
4.50116e-07
6.61391e-08
4.44602e-07
7.1185e-08
4.36614e-07
7.4506e-08
4.26531e-07
7.77988e-08
4.1465e-07
8.19055e-08
4.01092e-07
8.69917e-08
3.8584e-07
9.29872e-08
3.68772e-07
9.97161e-08
3.49664e-07
1.06913e-07
3.28177e-07
1.14232e-07
3.03812e-07
1.21137e-07
2.75762e-07
1.2672e-07
2.42069e-07
1.3048e-07
2.0231e-07
1.4404e-07
2.20134e-07
1.75896e-07
4.83341e-07
1.21053e-08
4.85173e-07
4.03658e-08
4.85513e-07
5.74097e-08
4.83534e-07
6.8118e-08
4.79113e-07
7.56064e-08
4.72288e-07
8.13311e-08
4.63296e-07
8.67905e-08
4.52365e-07
9.28362e-08
4.39606e-07
9.97506e-08
4.25014e-07
1.07579e-07
4.08479e-07
1.16251e-07
3.89783e-07
1.25609e-07
3.68583e-07
1.35432e-07
3.44377e-07
1.45344e-07
3.16374e-07
1.54723e-07
2.8307e-07
1.63784e-07
2.45108e-07
1.82001e-07
2.45904e-07
2.19338e-07
5.17996e-07
1.20673e-08
5.19546e-07
3.88161e-08
5.20015e-07
5.69402e-08
5.18548e-07
6.95857e-08
5.14901e-07
7.92532e-08
5.08996e-07
8.72363e-08
5.00952e-07
9.4834e-08
4.90925e-07
1.02863e-07
4.78998e-07
1.11677e-07
4.65167e-07
1.21411e-07
4.49335e-07
1.32083e-07
4.31307e-07
1.43638e-07
4.10778e-07
1.55961e-07
3.87313e-07
1.68808e-07
3.60251e-07
1.81786e-07
3.286e-07
1.95435e-07
2.93612e-07
2.16989e-07
2.7072e-07
2.68796e-07
5.55143e-07
1.20575e-08
5.56367e-07
3.7593e-08
5.56801e-07
5.65053e-08
5.55626e-07
7.07616e-08
5.5253e-07
8.23489e-08
5.47361e-07
9.24055e-08
5.4015e-07
1.02045e-07
5.30987e-07
1.12026e-07
5.19927e-07
1.22737e-07
5.06962e-07
1.34376e-07
4.92014e-07
1.47031e-07
4.74925e-07
1.60726e-07
4.55461e-07
1.75425e-07
4.33295e-07
1.90975e-07
4.07955e-07
2.07125e-07
3.78922e-07
2.24468e-07
3.47699e-07
2.48212e-07
2.93902e-07
3.24517e-07
5.94963e-07
1.20725e-08
5.9586e-07
3.6696e-08
5.96172e-07
5.61932e-08
5.9515e-07
7.17836e-08
5.92456e-07
8.50428e-08
5.87895e-07
9.69666e-08
5.81436e-07
1.08503e-07
5.7312e-07
1.20341e-07
5.62977e-07
1.32881e-07
5.50998e-07
1.46354e-07
5.37131e-07
1.60898e-07
5.21271e-07
1.76587e-07
5.03268e-07
1.93428e-07
4.82924e-07
2.11318e-07
4.59975e-07
2.30074e-07
4.3427e-07
2.50173e-07
4.07336e-07
2.75146e-07
3.14627e-07
3.8661e-07
6.37647e-07
1.21064e-08
6.38249e-07
3.60942e-08
6.38408e-07
5.6034e-08
6.37468e-07
7.27243e-08
6.35089e-07
8.7421e-08
6.31063e-07
1.00993e-07
6.25318e-07
1.14248e-07
6.17862e-07
1.27798e-07
6.08708e-07
1.42034e-07
5.97858e-07
1.57204e-07
5.8529e-07
1.73467e-07
5.70959e-07
1.90918e-07
5.54808e-07
2.09579e-07
5.3677e-07
2.29356e-07
5.16768e-07
2.50077e-07
4.94912e-07
2.72029e-07
4.72607e-07
2.97451e-07
3.32127e-07
4.55108e-07
5.74051e-07
1.21388e-08
5.7437e-07
3.5775e-08
5.74403e-07
5.60014e-08
5.73661e-07
7.34659e-08
5.71875e-07
8.92075e-08
5.68871e-07
1.03998e-07
5.64575e-07
1.18543e-07
5.58978e-07
1.33395e-07
5.52089e-07
1.48923e-07
5.43922e-07
1.65371e-07
5.34487e-07
1.82902e-07
5.23796e-07
2.01609e-07
5.11869e-07
2.21506e-07
4.98738e-07
2.42487e-07
4.8446e-07
2.64355e-07
4.69267e-07
2.87222e-07
4.54201e-07
3.12516e-07
3.43857e-07
4.42471e-07
6.99773e-07
1.21813e-08
7.00003e-07
3.55446e-08
6.99961e-07
5.60439e-08
6.99195e-07
7.42318e-08
6.97426e-07
9.09762e-08
6.94467e-07
1.06957e-07
6.9023e-07
1.2278e-07
6.84697e-07
1.38928e-07
6.77884e-07
1.55736e-07
6.69826e-07
1.7343e-07
6.60569e-07
1.92159e-07
6.5018e-07
2.11997e-07
6.38755e-07
2.32932e-07
6.26415e-07
2.54827e-07
6.13322e-07
2.77448e-07
5.99819e-07
3.00725e-07
5.86938e-07
3.25398e-07
3.53491e-07
5.77303e-07
8.53056e-07
1.22104e-08
8.53236e-07
3.53645e-08
8.53193e-07
5.60871e-08
8.52525e-07
7.48996e-08
8.50964e-07
9.25372e-08
8.48324e-07
1.09597e-07
8.44515e-07
1.26589e-07
8.39522e-07
1.4392e-07
8.33379e-07
1.61879e-07
8.26153e-07
1.80657e-07
8.17943e-07
2.00368e-07
8.08889e-07
2.21052e-07
7.99166e-07
2.42654e-07
7.88993e-07
2.65001e-07
7.78628e-07
2.87813e-07
7.6848e-07
3.10873e-07
7.59478e-07
3.344e-07
3.59332e-07
7.53638e-07
1.03996e-06
1.21771e-08
1.04022e-06
3.51038e-08
1.04038e-06
5.59212e-08
1.04011e-06
7.51758e-08
1.03914e-06
9.34997e-08
1.03733e-06
1.11411e-07
1.03459e-06
1.29332e-07
1.03092e-06
1.47588e-07
1.02639e-06
1.66407e-07
1.02112e-06
1.85931e-07
1.01526e-06
2.06224e-07
1.00903e-06
2.27278e-07
1.0027e-06
2.48991e-07
9.96544e-07
2.71154e-07
9.90897e-07
2.9346e-07
9.86171e-07
3.15598e-07
9.83113e-07
3.37458e-07
3.593e-07
9.83145e-07
1.26787e-06
1.19892e-08
1.2685e-06
3.44748e-08
1.26931e-06
5.51032e-08
1.27002e-06
7.44681e-08
1.2704e-06
9.31201e-08
1.27032e-06
1.11496e-07
1.26972e-06
1.29931e-07
1.26864e-06
1.48667e-07
1.26718e-06
1.67861e-07
1.26552e-06
1.87592e-07
1.26388e-06
2.07868e-07
1.26253e-06
2.28626e-07
1.26179e-06
2.49728e-07
1.262e-06
2.70945e-07
1.26349e-06
2.91971e-07
1.26663e-06
3.12465e-07
1.27192e-06
3.32164e-07
3.50972e-07
1.28025e-06
1.54583e-06
1.14792e-08
1.54734e-06
3.29611e-08
1.54961e-06
5.28326e-08
1.55236e-06
7.17228e-08
1.55537e-06
9.011e-08
1.55852e-06
1.0834e-07
1.5618e-06
1.26656e-07
1.56525e-06
1.45212e-07
1.56903e-06
1.64086e-07
1.57333e-06
1.8329e-07
1.57842e-06
2.02773e-07
1.58462e-06
2.22434e-07
1.59224e-06
2.42108e-07
1.60161e-06
2.61574e-07
1.61302e-06
2.80556e-07
1.62674e-06
2.98747e-07
1.64305e-06
3.15859e-07
3.31677e-07
1.66234e-06
1.88488e-06
1.03634e-08
1.88811e-06
2.973e-08
1.89313e-06
4.78175e-08
1.89959e-06
6.52601e-08
1.90725e-06
8.2453e-08
1.91595e-06
9.96353e-08
1.92566e-06
1.16944e-07
1.93644e-06
1.34437e-07
1.94841e-06
1.5211e-07
1.9618e-06
1.69905e-07
1.97684e-06
1.87727e-07
1.99384e-06
2.05443e-07
2.01306e-06
2.22888e-07
2.03476e-06
2.39866e-07
2.05916e-06
2.56156e-07
2.08639e-06
2.7152e-07
2.11652e-06
2.85727e-07
2.98581e-07
2.14962e-06
2.29852e-06
8.1813e-09
2.30472e-06
2.35233e-08
2.3144e-06
3.8143e-08
2.32701e-06
5.26483e-08
2.34215e-06
6.73126e-08
2.35955e-06
8.22314e-08
2.37909e-06
9.74089e-08
2.40074e-06
1.12788e-07
2.42458e-06
1.28268e-07
2.45076e-06
1.43729e-07
2.47945e-06
1.59035e-07
2.51085e-06
1.74039e-07
2.54515e-06
1.8859e-07
2.58249e-06
2.0253e-07
2.62294e-06
2.15702e-07
2.66651e-06
2.2795e-07
2.71311e-06
2.39127e-07
2.49115e-07
2.76258e-06
1.68323e-06
6.02372e-09
1.68935e-06
1.74025e-08
1.69885e-06
2.86457e-08
1.71113e-06
4.03603e-08
1.72577e-06
5.26738e-08
1.74247e-06
6.55316e-08
1.76107e-06
7.88167e-08
1.78148e-06
9.237e-08
1.80373e-06
1.06018e-07
1.82787e-06
1.19595e-07
1.85396e-06
1.32942e-07
1.88209e-06
1.45912e-07
1.91231e-06
1.58368e-07
1.94466e-06
1.70181e-07
1.97913e-06
1.81231e-07
2.01567e-06
1.9141e-07
2.05417e-06
2.00625e-07
2.08805e-07
2.09448e-06
1.46567e-06
3.80865e-09
1.47208e-06
1.09925e-08
1.48196e-06
1.87696e-08
1.49456e-06
2.77612e-08
1.50937e-06
3.78569e-08
1.52609e-06
4.88192e-08
1.54451e-06
6.03971e-08
1.56456e-06
7.23208e-08
1.58623e-06
8.4344e-08
1.60956e-06
9.62627e-08
1.6346e-06
1.07908e-07
1.66137e-06
1.19137e-07
1.68991e-06
1.29828e-07
1.72022e-06
1.39876e-07
1.75226e-06
1.49192e-07
1.78596e-06
1.57703e-07
1.82124e-06
1.65349e-07
1.72094e-07
1.85795e-06
1.27611e-06
1.71513e-09
1.2825e-06
4.59767e-09
1.29226e-06
9.00805e-09
1.30447e-06
1.555e-08
1.31861e-06
2.37228e-08
1.33434e-06
3.30888e-08
1.35148e-06
4.32512e-08
1.36999e-06
5.38136e-08
1.38988e-06
6.44592e-08
1.41118e-06
7.49597e-08
1.43394e-06
8.51451e-08
1.4582e-06
9.48842e-08
1.48395e-06
1.04075e-07
1.51119e-06
1.12638e-07
1.53987e-06
1.20511e-07
1.56993e-06
1.27646e-07
1.60127e-06
1.34009e-07
1.39588e-07
1.63377e-06
1.11086e-06
-5.447e-11
1.11705e-06
-1.59075e-09
1.12638e-06
-3.25454e-10
1.13777e-06
4.16542e-09
1.1507e-06
1.07902e-08
1.16487e-06
1.89254e-08
1.18011e-06
2.80056e-08
1.19644e-06
3.74857e-08
1.21391e-06
4.69873e-08
1.23259e-06
5.62752e-08
1.25255e-06
6.51929e-08
1.2738e-06
7.36316e-08
1.29636e-06
8.15154e-08
1.32021e-06
8.87913e-08
1.34529e-06
9.54229e-08
1.37155e-06
1.01386e-07
1.3989e-06
1.06666e-07
1.11265e-07
1.42722e-06
9.66775e-07
-1.30843e-09
9.72669e-07
-7.48391e-09
9.81373e-07
-9.02966e-09
9.91656e-07
-6.11734e-09
1.00306e-06
-6.13741e-10
1.01528e-06
6.70156e-09
1.02825e-06
1.5042e-08
1.04204e-06
2.3691e-08
1.0568e-06
3.22326e-08
1.07262e-06
4.04523e-08
1.08958e-06
4.82275e-08
1.10773e-06
5.54854e-08
1.12706e-06
6.21839e-08
1.14755e-06
6.83001e-08
1.16915e-06
7.38226e-08
1.19179e-06
7.87476e-08
1.21538e-06
8.30784e-08
8.68265e-08
1.23982e-06
8.41095e-07
-1.86838e-09
8.46723e-07
-1.31119e-08
8.54647e-07
-1.69534e-08
8.63583e-07
-1.50534e-08
8.73157e-07
-1.01879e-08
8.83112e-07
-3.25292e-09
8.93497e-07
4.65628e-09
9.04537e-07
1.26509e-08
9.16441e-07
2.03292e-08
9.29355e-07
2.75378e-08
9.43368e-07
3.42145e-08
9.58515e-07
4.03387e-08
9.7479e-07
4.59092e-08
9.92155e-07
5.09345e-08
1.01055e-06
5.5427e-08
1.0299e-06
5.93998e-08
1.05011e-06
6.28697e-08
6.58541e-08
1.07108e-06
7.31119e-07
-1.25888e-09
7.36828e-07
-1.88211e-08
7.43805e-07
-2.39305e-08
7.51046e-07
-2.22938e-08
7.58365e-07
-1.75074e-08
7.65649e-07
-1.05371e-08
7.73169e-07
-2.86325e-09
7.81304e-07
4.51587e-09
7.90336e-07
1.12967e-08
8.00434e-07
1.74406e-08
8.11673e-07
2.29753e-08
8.24065e-07
2.79463e-08
8.3758e-07
3.23949e-08
8.52156e-07
3.63576e-08
8.67718e-07
3.98649e-08
8.84177e-07
4.29412e-08
9.01435e-07
4.56118e-08
4.78964e-08
9.19393e-07
6.34176e-07
1.57192e-09
6.40697e-07
-2.53422e-08
6.46343e-07
-2.95765e-08
6.51263e-07
-2.72135e-08
6.55653e-07
-2.18974e-08
6.59736e-07
-1.46201e-08
6.64097e-07
-7.22493e-09
6.69251e-07
-6.37788e-10
6.75504e-07
5.04333e-09
6.82998e-07
9.94653e-09
6.91756e-07
1.42178e-08
7.01732e-07
1.79698e-08
7.12852e-07
2.12752e-08
7.25024e-07
2.41861e-08
7.38149e-07
2.67399e-08
7.52126e-07
2.89635e-08
7.66855e-07
3.08833e-08
3.25217e-08
7.8223e-07
5.49326e-07
6.79239e-09
5.56722e-07
-3.27386e-08
5.59385e-07
-3.22395e-08
5.6053e-07
-2.83582e-08
5.60827e-07
-2.21949e-08
5.60995e-07
-1.4788e-08
5.61924e-07
-8.15337e-09
5.64135e-07
-2.849e-09
5.6782e-07
1.35802e-09
5.7304e-07
4.72679e-09
5.79685e-07
7.57325e-09
5.87619e-07
1.00349e-08
5.96712e-07
1.21827e-08
6.06837e-07
1.40608e-08
6.17878e-07
1.56991e-08
6.29724e-07
1.71174e-08
6.42274e-07
1.83333e-08
1.93694e-08
6.55427e-07
4.86043e-07
3.51019e-09
4.84784e-07
-3.148e-08
4.78594e-07
-2.60493e-08
4.71518e-07
-2.12814e-08
4.6526e-07
-1.59374e-08
4.60487e-07
-1.00154e-08
4.57805e-07
-5.47075e-09
4.5728e-07
-2.3238e-09
4.58748e-07
-1.10111e-10
4.62089e-07
1.38601e-09
4.66959e-07
2.70273e-09
4.73131e-07
3.86256e-09
4.8043e-07
4.88443e-09
4.88711e-07
5.77963e-09
4.97851e-07
6.55915e-09
5.07736e-07
7.23276e-09
5.18267e-07
7.80211e-09
8.27781e-09
5.29358e-07
4.23778e-07
3.92298e-07
3.66248e-07
3.44967e-07
3.2903e-07
3.19014e-07
3.13543e-07
3.1122e-07
3.1111e-07
3.12496e-07
3.15198e-07
3.19061e-07
3.23945e-07
3.29725e-07
3.36284e-07
3.43517e-07
3.51319e-07
3.59597e-07
6.68235e-08
-6.68235e-08
1.69888e-07
-1.03065e-07
2.8617e-07
-1.16282e-07
4.00192e-07
-1.14021e-07
5.01489e-07
-1.01298e-07
5.84491e-07
-8.30021e-08
6.47159e-07
-6.26674e-08
6.88907e-07
-4.17478e-08
7.09748e-07
-2.08416e-08
7.10952e-07
-1.20385e-09
6.90901e-07
2.00505e-08
6.54227e-07
3.6674e-08
6.05784e-07
4.84435e-08
5.50722e-07
5.50614e-08
4.93321e-07
5.74015e-08
4.36294e-07
5.70274e-08
3.80188e-07
5.61061e-08
3.23285e-07
5.69025e-08
2.62088e-07
6.11975e-08
1.91998e-07
7.00895e-08
1.07884e-07
8.41141e-08
4.87285e-09
1.03011e-07
-1.21826e-07
1.26699e-07
-2.75853e-07
1.54027e-07
-4.5802e-07
1.82167e-07
-6.66417e-07
2.08397e-07
-8.96734e-07
2.30317e-07
-1.14311e-06
2.46379e-07
-1.39902e-06
2.55905e-07
-1.65794e-06
2.58919e-07
-1.9139e-06
2.5596e-07
-2.1618e-06
2.47898e-07
-2.39756e-06
2.35764e-07
-2.61818e-06
2.20619e-07
-2.82162e-06
2.03446e-07
-3.00672e-06
1.85096e-07
-3.17299e-06
1.66269e-07
-3.32048e-06
1.47491e-07
-3.44961e-06
1.29127e-07
-3.56101e-06
1.11402e-07
-3.65544e-06
9.44315e-08
-3.73369e-06
7.82479e-08
-3.79652e-06
6.2831e-08
-3.84464e-06
4.8123e-08
-3.87869e-06
3.40455e-08
-3.89925e-06
2.05596e-08
-3.90698e-06
7.7261e-09
-3.9032e-06
-3.77741e-09
-3.88975e-06
-1.34526e-08
-3.86759e-06
-2.21536e-08
-3.83734e-06
-3.02469e-08
-3.79937e-06
-3.79758e-08
-3.75389e-06
-4.54758e-08
-3.70108e-06
-5.28109e-08
-3.64107e-06
-6.00117e-08
-3.57398e-06
-6.70903e-08
-3.49993e-06
-7.40485e-08
-3.41905e-06
-8.08819e-08
-3.33147e-06
-8.75818e-08
-3.23733e-06
-9.4137e-08
-3.1368e-06
-1.00534e-07
-3.03004e-06
-1.06757e-07
-2.91725e-06
-1.12791e-07
-2.79863e-06
-1.18619e-07
-2.67441e-06
-1.24223e-07
-2.54482e-06
-1.29586e-07
-2.41013e-06
-1.34691e-07
-2.27061e-06
-1.39521e-07
-2.12655e-06
-1.44058e-07
-1.97826e-06
-1.48286e-07
-1.82607e-06
-1.5219e-07
-1.67032e-06
-1.55754e-07
-1.51136e-06
-1.58965e-07
-1.34955e-06
-1.61808e-07
-1.18528e-06
-1.64271e-07
-1.01894e-06
-1.6634e-07
-8.50938e-07
-1.67999e-07
-6.8171e-07
-1.69228e-07
-5.11714e-07
-1.69996e-07
-3.41476e-07
-1.70238e-07
-1.71732e-07
-1.69744e-07
-3.4418e-09
-1.6829e-07
1.63531e-07
-1.66973e-07
3.29143e-07
-1.65612e-07
4.92421e-07
-1.63278e-07
6.52775e-07
-1.60355e-07
8.09677e-07
-1.56902e-07
9.62608e-07
-1.52931e-07
1.11105e-06
-1.48447e-07
1.25451e-06
-1.43453e-07
1.39246e-06
-1.37953e-07
1.52442e-06
-1.31955e-07
1.64988e-06
-1.25468e-07
1.76839e-06
-1.18504e-07
1.87946e-06
-1.11072e-07
1.98264e-06
-1.03181e-07
2.07747e-06
-9.48322e-08
2.16349e-06
-8.60189e-08
2.24022e-06
-7.67225e-08
2.30711e-06
-6.68954e-08
2.36348e-06
-5.63745e-08
2.40846e-06
-4.49724e-08
2.44072e-06
-3.22603e-08
2.45654e-06
-1.58191e-08
2.44841e-06
8.1235e-09
2.41169e-06
3.67189e-08
2.34431e-06
6.73821e-08
2.2445e-06
9.98145e-08
2.11177e-06
1.32732e-07
1.94827e-06
1.63501e-07
1.76015e-06
1.88115e-07
1.55955e-06
2.00597e-07
1.36463e-06
1.94928e-07
1.18521e-06
1.79414e-07
1.03313e-06
1.52082e-07
9.17419e-07
1.15711e-07
8.29704e-07
8.77149e-08
7.62271e-07
6.74326e-08
7.04915e-07
5.73566e-08
6.5124e-07
5.36741e-08
5.98648e-07
5.25919e-08
5.46941e-07
5.17077e-08
4.96862e-07
5.00783e-08
4.49477e-07
4.73859e-08
4.05644e-07
4.38321e-08
3.65839e-07
3.98057e-08
3.30181e-07
3.56575e-08
2.98582e-07
3.15988e-08
2.70855e-07
2.77273e-08
2.46772e-07
2.40836e-08
2.26085e-07
2.06865e-08
2.08538e-07
1.75471e-08
1.93866e-07
1.46724e-08
1.81799e-07
1.20666e-08
1.72069e-07
9.72984e-09
1.64411e-07
7.65803e-09
1.58568e-07
5.84331e-09
1.54293e-07
4.27455e-09
1.51355e-07
2.93776e-09
1.49538e-07
1.8171e-09
1.48649e-07
8.89028e-10
1.48555e-07
9.41227e-11
1.49067e-07
-5.11943e-10
1.50096e-07
-1.02859e-09
1.51529e-07
-1.43303e-09
1.53268e-07
-1.73919e-09
1.55227e-07
-1.95929e-09
1.57331e-07
-2.10404e-09
1.59514e-07
-2.18309e-09
1.6172e-07
-2.206e-09
1.63903e-07
-2.18287e-09
1.66027e-07
-2.12418e-09
1.68068e-07
-2.04022e-09
1.70008e-07
-1.94028e-09
1.7184e-07
-1.83205e-09
1.73561e-07
-1.72117e-09
1.75172e-07
-1.61091e-09
1.76674e-07
-1.50192e-09
1.78066e-07
-1.39255e-09
1.79347e-07
-1.28005e-09
1.80509e-07
-1.16234e-09
1.81548e-07
-1.03931e-09
1.82461e-07
-9.12981e-10
1.83248e-07
-7.86551e-10
1.83911e-07
-6.62996e-10
1.84455e-07
-5.43918e-10
1.84883e-07
-4.28886e-10
1.85198e-07
-3.14834e-10
1.85394e-07
-1.9547e-10
1.85457e-07
-6.34233e-11
1.85342e-07
1.15493e-10
1.85017e-07
3.24936e-10
1.84444e-07
5.72471e-10
1.83569e-07
8.75716e-10
1.82318e-07
1.25023e-09
1.80586e-07
1.73261e-09
1.78193e-07
2.39241e-09
1.74744e-07
3.44932e-09
1.69294e-07
5.44961e-09
1.17522e-08
1.57542e-07
1.20927e-07
-1.87751e-07
2.3566e-07
-2.17798e-07
3.24402e-07
-2.05024e-07
3.9055e-07
-1.80169e-07
4.38311e-07
-1.49059e-07
4.69949e-07
-1.1464e-07
4.86372e-07
-7.90907e-08
4.88414e-07
-4.37895e-08
4.77161e-07
-9.58889e-09
4.53037e-07
2.29204e-08
4.19551e-07
5.35366e-08
3.74885e-07
8.13401e-08
3.18067e-07
1.05262e-07
2.48318e-07
1.2481e-07
1.64973e-07
1.40747e-07
6.67864e-08
1.55214e-07
-4.83324e-08
1.71225e-07
-1.83135e-07
1.91705e-07
-3.40648e-07
2.18711e-07
-5.23404e-07
2.52846e-07
-7.32349e-07
2.9306e-07
-9.66174e-07
3.36836e-07
-1.22019e-06
3.80719e-07
-1.48716e-06
4.2099e-07
-1.7592e-06
4.54214e-07
-2.02852e-06
4.77712e-07
-2.28817e-06
4.89967e-07
-2.53251e-06
4.90725e-07
-2.75742e-06
4.80809e-07
-2.9603e-06
4.61797e-07
-3.14002e-06
4.35681e-07
-3.29668e-06
4.0456e-07
-3.43132e-06
3.70405e-07
-3.5456e-06
3.34903e-07
-3.64154e-06
2.9938e-07
-3.72124e-06
2.64796e-07
-3.78674e-06
2.31771e-07
-3.8399e-06
2.00649e-07
-3.88233e-06
1.71561e-07
-3.91542e-06
1.44488e-07
-3.9403e-06
1.19313e-07
-3.95792e-06
9.5874e-08
-3.96908e-06
7.39883e-08
-3.97444e-06
5.34814e-08
-3.9746e-06
3.42094e-08
-3.97012e-06
1.60748e-08
-3.96145e-06
-9.43975e-10
-3.94795e-06
-1.72728e-08
-3.9284e-06
-3.30039e-08
-3.90211e-06
-4.84462e-08
-3.86878e-06
-6.35814e-08
-3.82832e-06
-7.84336e-08
-3.78076e-06
-9.30362e-08
-3.72616e-06
-1.07413e-07
-3.66459e-06
-1.21575e-07
-3.59616e-06
-1.35524e-07
-3.52095e-06
-1.49252e-07
-3.43909e-06
-1.62745e-07
-3.35069e-06
-1.75981e-07
-3.25589e-06
-1.88936e-07
-3.15485e-06
-2.01581e-07
-3.04772e-06
-2.13886e-07
-2.93469e-06
-2.25817e-07
-2.81597e-06
-2.37342e-07
-2.69177e-06
-2.48424e-07
-2.56233e-06
-2.59028e-07
-2.4279e-06
-2.6912e-07
-2.28876e-06
-2.78663e-07
-2.14519e-06
-2.87625e-07
-1.99751e-06
-2.9597e-07
-1.84603e-06
-3.03667e-07
-1.6911e-06
-3.10685e-07
-1.53307e-06
-3.16992e-07
-1.37232e-06
-3.22561e-07
-1.20922e-06
-3.27362e-07
-1.0442e-06
-3.31366e-07
-8.77655e-07
-3.34544e-07
-7.10022e-07
-3.36861e-07
-5.4174e-07
-3.38277e-07
-3.73252e-07
-3.38726e-07
-2.04887e-07
-3.38109e-07
-3.68115e-08
-3.36366e-07
1.29984e-07
-3.33769e-07
2.94674e-07
-3.30301e-07
4.57111e-07
-3.25715e-07
6.16826e-07
-3.2007e-07
7.7332e-07
-3.13396e-07
9.26083e-07
-3.05694e-07
1.0746e-06
-2.96966e-07
1.21837e-06
-2.87216e-07
1.35687e-06
-2.76458e-07
1.48962e-06
-2.64709e-07
1.61615e-06
-2.5199e-07
1.73597e-06
-2.38325e-07
1.84863e-06
-2.23737e-07
1.95369e-06
-2.08241e-07
2.05071e-06
-1.91846e-07
2.13923e-06
-1.74544e-07
2.21882e-06
-1.56307e-07
2.28899e-06
-1.3707e-07
2.34932e-06
-1.167e-07
2.39939e-06
-9.50442e-08
2.43903e-06
-7.19052e-08
2.46996e-06
-4.67424e-08
2.49551e-06
-1.74293e-08
2.51538e-06
1.68458e-08
2.52541e-06
5.73489e-08
2.52105e-06
1.04176e-07
2.49669e-06
1.57097e-07
2.44586e-06
2.1433e-07
2.36251e-06
2.71463e-07
2.24244e-06
3.20663e-07
2.0839e-06
3.53476e-07
1.89543e-06
3.67881e-07
1.68976e-06
3.57753e-07
1.47991e-06
3.25556e-07
1.28688e-06
2.80752e-07
1.12097e-06
2.33333e-07
9.85816e-07
1.92515e-07
8.77565e-07
1.61926e-07
7.89096e-07
1.41061e-07
7.13819e-07
1.26984e-07
6.47164e-07
1.16733e-07
5.86524e-07
1.08026e-07
5.30803e-07
9.95533e-08
4.7979e-07
9.08188e-08
4.33654e-07
8.17934e-08
3.92601e-07
7.26518e-08
3.56685e-07
6.3643e-08
3.25755e-07
5.50139e-08
2.99489e-07
4.69525e-08
2.7747e-07
3.9566e-08
2.59248e-07
3.28944e-08
2.4438e-07
2.6935e-08
2.32448e-07
2.16618e-08
2.23068e-07
1.70376e-08
2.15892e-07
1.302e-08
2.10602e-07
9.56408e-09
2.06917e-07
6.62291e-09
2.04586e-07
4.14749e-09
2.03391e-07
2.08424e-09
2.03114e-07
3.71735e-10
2.0361e-07
-1.00816e-09
2.04698e-07
-2.1165e-09
2.06248e-07
-2.98285e-09
2.08147e-07
-3.63841e-09
2.10299e-07
-4.11124e-09
2.1262e-07
-4.42567e-09
2.15041e-07
-4.60339e-09
2.175e-07
-4.66494e-09
2.19948e-07
-4.63078e-09
2.22345e-07
-4.52139e-09
2.24661e-07
-4.35671e-09
2.26876e-07
-4.15495e-09
2.28975e-07
-3.9316e-09
2.30953e-07
-3.69854e-09
2.32805e-07
-3.46341e-09
2.34533e-07
-3.22923e-09
2.36135e-07
-2.99495e-09
2.37612e-07
-2.75714e-09
2.38962e-07
-2.51261e-09
2.40184e-07
-2.26056e-09
2.41274e-07
-2.00328e-09
2.42233e-07
-1.74518e-09
2.4306e-07
-1.49085e-09
2.4376e-07
-1.243e-09
2.44332e-07
-1.00111e-09
2.44777e-07
-7.6016e-10
2.45091e-07
-5.09713e-10
2.45259e-07
-2.31133e-10
2.45274e-07
1.00208e-10
2.45107e-07
4.9174e-10
2.44712e-07
9.68045e-10
2.44036e-07
1.55146e-09
2.43013e-07
2.2734e-09
2.41557e-07
3.18862e-09
2.39526e-07
4.42298e-09
2.36756e-07
6.22022e-09
2.32675e-07
9.53047e-09
1.71193e-08
2.27308e-07
9.95381e-08
-2.87289e-07
1.74098e-07
-2.92357e-07
2.23071e-07
-2.53998e-07
2.52305e-07
-2.09403e-07
2.65624e-07
-1.62378e-07
2.65209e-07
-1.14225e-07
2.52107e-07
-6.59892e-08
2.26846e-07
-1.85284e-08
1.89694e-07
2.7563e-08
1.4067e-07
7.19449e-08
7.97897e-08
1.14417e-07
6.31932e-09
1.5481e-07
-8.13851e-08
1.92966e-07
-1.85779e-07
2.29204e-07
-3.09811e-07
2.64779e-07
-4.56336e-07
3.01738e-07
-6.27355e-07
3.42244e-07
-8.23305e-07
3.87655e-07
-1.0424e-06
4.37806e-07
-1.28032e-06
4.90762e-07
-1.53036e-06
5.43106e-07
-1.78422e-06
5.90691e-07
-2.03307e-06
6.29572e-07
-2.26885e-06
6.56768e-07
-2.48529e-06
6.70657e-07
-2.67859e-06
6.71014e-07
-2.84744e-06
6.58811e-07
-2.99258e-06
6.35871e-07
-3.11625e-06
6.04477e-07
-3.22148e-06
5.67027e-07
-3.31156e-06
5.25757e-07
-3.38958e-06
4.82577e-07
-3.45816e-06
4.38992e-07
-3.51936e-06
3.96099e-07
-3.57461e-06
3.54633e-07
-3.62484e-06
3.15026e-07
-3.67055e-06
2.77481e-07
-3.71194e-06
2.42033e-07
-3.74899e-06
2.08609e-07
-3.78156e-06
1.77067e-07
-3.80948e-06
1.47228e-07
-3.83251e-06
1.18904e-07
-3.85043e-06
9.1906e-08
-3.863e-06
6.60558e-08
-3.86998e-06
4.11904e-08
-3.87107e-06
1.71612e-08
-3.86582e-06
-6.18878e-09
-3.85403e-06
-2.90682e-08
-3.83543e-06
-5.16014e-08
-3.81004e-06
-7.3842e-08
-3.77782e-06
-9.58012e-08
-3.73876e-06
-1.17491e-07
-3.69288e-06
-1.38918e-07
-3.6402e-06
-1.60085e-07
-3.58079e-06
-1.80987e-07
-3.51471e-06
-2.01609e-07
-3.44203e-06
-2.21929e-07
-3.36286e-06
-2.41917e-07
-3.2773e-06
-2.61539e-07
-3.18548e-06
-2.80755e-07
-3.08754e-06
-2.99519e-07
-2.98365e-06
-3.17783e-07
-2.87397e-06
-3.35498e-07
-2.7587e-06
-3.52611e-07
-2.63805e-06
-3.6907e-07
-2.51226e-06
-3.84819e-07
-2.38157e-06
-3.99807e-07
-2.24626e-06
-4.13979e-07
-2.1066e-06
-4.27284e-07
-1.9629e-06
-4.39671e-07
-1.81547e-06
-4.51091e-07
-1.66466e-06
-4.61495e-07
-1.51082e-06
-4.70839e-07
-1.3543e-06
-4.79075e-07
-1.1955e-06
-4.86161e-07
-1.03482e-06
-4.92052e-07
-8.72657e-07
-4.96704e-07
-7.09447e-07
-5.00071e-07
-5.45621e-07
-5.02103e-07
-3.81603e-07
-5.02745e-07
-2.17771e-07
-5.0194e-07
-5.44699e-08
-4.99667e-07
1.07709e-07
-4.95948e-07
2.68157e-07
-4.90749e-07
4.26471e-07
-4.84029e-07
5.82178e-07
-4.75777e-07
7.34773e-07
-4.65991e-07
8.83744e-07
-4.54665e-07
1.02858e-06
-4.41802e-07
1.16878e-06
-4.27415e-07
1.30385e-06
-4.11524e-07
1.4333e-06
-3.9416e-07
1.55666e-06
-3.75357e-07
1.67349e-06
-3.55153e-07
1.78334e-06
-3.33582e-07
1.88577e-06
-3.10674e-07
1.98037e-06
-2.86445e-07
2.06672e-06
-2.60893e-07
2.1444e-06
-2.33993e-07
2.21302e-06
-2.05688e-07
2.27219e-06
-1.75874e-07
2.32156e-06
-1.4441e-07
2.36076e-06
-1.11103e-07
2.38967e-06
-7.566e-08
2.40946e-06
-3.72122e-08
2.42092e-06
5.38583e-09
2.42488e-06
5.33862e-08
2.42143e-06
1.07629e-07
2.40987e-06
1.6865e-07
2.38807e-06
2.36132e-07
2.35157e-06
3.07967e-07
2.29307e-06
3.79161e-07
2.20433e-06
4.42214e-07
2.08252e-06
4.89698e-07
1.92755e-06
5.12723e-07
1.74648e-06
5.06625e-07
1.55349e-06
4.73739e-07
1.3644e-06
4.22423e-07
1.19303e-06
3.63885e-07
1.04629e-06
3.08669e-07
9.24313e-07
2.63036e-07
8.2319e-07
2.28107e-07
7.37987e-07
2.01936e-07
6.645e-07
1.81512e-07
5.99908e-07
1.64146e-07
5.42637e-07
1.48089e-07
4.91926e-07
1.32505e-07
4.4739e-07
1.17187e-07
4.08739e-07
1.02294e-07
3.75625e-07
8.81278e-08
3.4761e-07
7.49671e-08
3.24192e-07
6.2984e-08
3.0485e-07
5.2237e-08
2.8908e-07
4.27047e-08
2.76419e-07
3.43231e-08
2.66446e-07
2.70098e-08
2.58788e-07
2.06782e-08
2.5311e-07
1.52419e-08
2.49117e-07
1.06167e-08
2.46544e-07
6.71997e-09
2.45159e-07
3.4696e-09
2.44744e-07
7.8634e-10
2.45126e-07
-1.38955e-09
2.46136e-07
-3.12679e-09
2.47636e-07
-4.48274e-09
2.49506e-07
-5.50855e-09
2.51644e-07
-6.24953e-09
2.53964e-07
-6.7453e-09
2.56391e-07
-7.03106e-09
2.58866e-07
-7.13932e-09
2.61336e-07
-7.10121e-09
2.63762e-07
-6.94697e-09
2.66111e-07
-6.70549e-09
2.68359e-07
-6.4033e-09
2.70491e-07
-6.0633e-09
2.72496e-07
-5.70361e-09
2.74369e-07
-5.33674e-09
2.76109e-07
-4.96914e-09
2.77716e-07
-4.60179e-09
2.79191e-07
-4.23209e-09
2.80535e-07
-3.85674e-09
2.81749e-07
-3.47437e-09
2.82832e-07
-3.08679e-09
2.83785e-07
-2.69837e-09
2.84609e-07
-2.31406e-09
2.85303e-07
-1.93699e-09
2.85868e-07
-1.56634e-09
2.86303e-07
-1.19565e-09
2.86605e-07
-8.1118e-10
2.86765e-07
-3.91172e-10
2.86774e-07
9.07037e-11
2.86608e-07
6.57597e-10
2.86236e-07
1.3406e-09
2.85614e-07
2.173e-09
2.8469e-07
3.19791e-09
2.83394e-07
4.48423e-09
2.81637e-07
6.18017e-09
2.79321e-07
8.53595e-09
2.76369e-07
1.24825e-08
1.98236e-08
2.73665e-07
5.36575e-08
-3.40946e-07
7.61852e-08
-3.14885e-07
8.50927e-08
-2.62905e-07
8.19193e-08
-2.0623e-07
6.71682e-08
-1.47627e-07
4.1092e-08
-8.81484e-08
3.6252e-09
-2.85224e-08
-4.56346e-08
3.07314e-08
-1.07343e-07
8.92711e-08
-1.82284e-07
1.46887e-07
-2.71396e-07
2.03529e-07
-3.75883e-07
2.59297e-07
-4.97404e-07
3.14487e-07
-6.37909e-07
3.69709e-07
-7.99022e-07
4.25892e-07
-9.81176e-07
4.83892e-07
-1.1828e-06
5.43863e-07
-1.39982e-06
6.04681e-07
-1.6258e-06
6.63782e-07
-1.85258e-06
7.17543e-07
-2.07157e-06
7.621e-07
-2.27517e-06
7.94285e-07
-2.45788e-06
8.12283e-07
-2.61692e-06
8.15816e-07
-2.75218e-06
8.05916e-07
-2.86567e-06
7.84502e-07
-2.96078e-06
7.53918e-07
-3.04146e-06
7.16555e-07
-3.11158e-06
6.74599e-07
-3.17445e-06
6.29894e-07
-3.23259e-06
5.839e-07
-3.28772e-06
5.37706e-07
-3.34082e-06
4.92083e-07
-3.39226e-06
4.4754e-07
-3.44201e-06
4.04385e-07
-3.48975e-06
3.62773e-07
-3.53503e-06
3.22752e-07
-3.57728e-06
2.84291e-07
-3.61598e-06
2.47309e-07
-3.65061e-06
2.11694e-07
-3.6807e-06
1.77315e-07
-3.70583e-06
1.44034e-07
-3.72564e-06
1.11714e-07
-3.7398e-06
8.02241e-08
-3.74805e-06
4.94403e-08
-3.75014e-06
1.92487e-08
-3.74586e-06
-1.0467e-08
-3.73512e-06
-3.98154e-08
-3.71785e-06
-6.88699e-08
-3.69403e-06
-9.76622e-08
-3.66363e-06
-1.26201e-07
-3.62663e-06
-1.54485e-07
-3.58304e-06
-1.82508e-07
-3.53287e-06
-2.10256e-07
-3.47615e-06
-2.37705e-07
-3.41294e-06
-2.64825e-07
-3.34329e-06
-2.91578e-07
-3.26729e-06
-3.17917e-07
-3.18504e-06
-3.43791e-07
-3.09665e-06
-3.69141e-07
-3.00226e-06
-3.93907e-07
-2.90202e-06
-4.18021e-07
-2.79611e-06
-4.41414e-07
-2.6847e-06
-4.64016e-07
-2.56802e-06
-4.85754e-07
-2.44628e-06
-5.06557e-07
-2.31974e-06
-5.26352e-07
-2.18865e-06
-5.45068e-07
-2.0533e-06
-5.62635e-07
-1.91398e-06
-5.78985e-07
-1.77102e-06
-5.94053e-07
-1.62474e-06
-6.07775e-07
-1.47549e-06
-6.20088e-07
-1.32363e-06
-6.30934e-07
-1.16954e-06
-6.40254e-07
-1.0136e-06
-6.4799e-07
-8.5622e-07
-6.54084e-07
-6.97809e-07
-6.58482e-07
-5.38788e-07
-6.61125e-07
-3.79575e-07
-6.61958e-07
-2.20581e-07
-6.60934e-07
-6.22267e-08
-6.58022e-07
9.50251e-08
-6.532e-07
2.50691e-07
-6.46415e-07
4.04292e-07
-6.37631e-07
5.55339e-07
-6.26825e-07
7.03329e-07
-6.1398e-07
8.47756e-07
-5.99092e-07
9.88121e-07
-5.82167e-07
1.12393e-06
-5.63223e-07
1.2547e-06
-5.42292e-07
1.37995e-06
-5.19417e-07
1.49924e-06
-4.94647e-07
1.61213e-06
-4.68035e-07
1.71817e-06
-4.3963e-07
1.81697e-06
-4.09474e-07
1.90813e-06
-3.77597e-07
1.99124e-06
-3.44006e-07
2.06593e-06
-3.08686e-07
2.13184e-06
-2.71593e-07
2.18861e-06
-2.32644e-07
2.23592e-06
-1.91721e-07
2.27348e-06
-1.48665e-07
2.30108e-06
-1.03256e-07
2.31885e-06
-5.49845e-08
2.32727e-06
-3.02988e-09
2.32715e-06
5.35022e-08
2.31936e-06
1.15417e-07
2.30469e-06
1.83321e-07
2.28346e-06
2.57366e-07
2.25471e-06
3.36708e-07
2.2152e-06
4.18671e-07
2.15924e-06
4.9818e-07
2.08065e-06
5.68284e-07
1.97366e-06
6.19718e-07
1.83707e-06
6.43208e-07
1.67667e-06
6.34145e-07
1.50393e-06
5.95165e-07
1.33243e-06
5.3538e-07
1.17363e-06
4.67474e-07
1.03399e-06
4.02667e-07
9.1494e-07
3.47162e-07
8.14548e-07
3.02328e-07
7.29598e-07
2.66463e-07
6.56989e-07
2.36755e-07
5.94364e-07
2.10715e-07
5.40122e-07
1.86747e-07
4.93199e-07
1.6411e-07
4.52834e-07
1.42659e-07
4.18406e-07
1.22556e-07
3.89333e-07
1.04039e-07
3.65046e-07
8.72716e-08
3.44983e-07
7.22997e-08
3.28615e-07
5.90727e-08