/*--------------------------------*- C++ -*----------------------------------*\
  =========                 |
  \\      /  F ield         | OpenFOAM: The Open Source CFD Toolbox
   \\    /   O peration     | Website:  https://openfoam.org
    \\  /    A nd           | Version:  9
     \\/     M anipulation  |
\*---------------------------------------------------------------------------*/
FoamFile
{
    format      ascii;
    class       volVectorField;
    location    "0.06";
    object      U;
}
// * * * * * * * * * * * * * * * * * * * * * * * * * * * * * * * * * * * * * //

dimensions      [0 1 -1 0 0 0 0];

internalField   nonuniform List<vector> 
12225
(
(0.935911 -0.300403 0)
(0.898154 -0.0800905 0)
(0.79541 0.000565027 0)
(0.689426 0.0128243 0)
(0.6137 0.0106589 0)
(0.558647 0.00804187 0)
(0.512157 0.00690625 0)
(0.469155 0.0067027 0)
(0.427511 0.00685556 0)
(0.386046 0.0070853 0)
(0.344382 0.00726383 0)
(0.302794 0.00727999 0)
(0.262226 0.00696215 0)
(0.224209 0.00601232 0)
(0.193308 0.00369369 0)
(0.171114 -0.00241985 0)
(0.224335 -0.0238055 0)
(0.137853 0.0954176 0)
(1.02408 0.0820796 0)
(1.00149 0.0686313 0)
(0.963336 0.0368741 0)
(0.913176 0.0274493 0)
(0.863 0.0235455 0)
(0.815882 0.0205642 0)
(0.770627 0.0190316 0)
(0.726258 0.0188356 0)
(0.681671 0.0194528 0)
(0.635715 0.0204805 0)
(0.587672 0.0216387 0)
(0.53735 0.0226404 0)
(0.485164 0.023083 0)
(0.432029 0.0222426 0)
(0.380944 0.0187661 0)
(0.332821 0.00511031 0)
(0.308527 -0.0171465 0)
(0.197606 0.10562 0)
(0.999306 0.0206801 0)
(0.998323 0.0353908 0)
(0.992781 0.035605 0)
(0.969983 0.0349169 0)
(0.938287 0.0329903 0)
(0.902821 0.0308914 0)
(0.865003 0.0300611 0)
(0.825621 0.030652 0)
(0.784616 0.0322773 0)
(0.741359 0.034574 0)
(0.695244 0.0372322 0)
(0.64588 0.0398813 0)
(0.593182 0.0419848 0)
(0.537207 0.0426052 0)
(0.479004 0.0399105 0)
(0.417222 0.0272396 0)
(0.352543 0.0131425 0)
(0.236097 0.148145 0)
(0.998166 0.00582778 0)
(1.00022 0.0292175 0)
(1.00264 0.0377072 0)
(0.991116 0.0403147 0)
(0.970377 0.040609 0)
(0.943958 0.0402403 0)
(0.913199 0.0407321 0)
(0.879282 0.0425321 0)
(0.842652 0.0454831 0)
(0.803089 0.0493318 0)
(0.760175 0.0538009 0)
(0.713479 0.0585102 0)
(0.662609 0.0628977 0)
(0.607039 0.0659911 0)
(0.546476 0.065888 0)
(0.478442 0.0575625 0)
(0.397735 0.0550659 0)
(0.283137 0.191403 0)
(0.999192 0.00620045 0)
(1.00164 0.0291069 0)
(1.00574 0.0392765 0)
(0.999782 0.0439879 0)
(0.985912 0.0465579 0)
(0.966101 0.0482326 0)
(0.941226 0.0504304 0)
(0.912359 0.0537853 0)
(0.880086 0.0583432 0)
(0.84441 0.0639854 0)
(0.80506 0.0705158 0)
(0.761621 0.0776182 0)
(0.713544 0.0848072 0)
(0.659985 0.0912334 0)
(0.599909 0.0952419 0)
(0.530556 0.0937695 0)
(0.446283 0.102626 0)
(0.339348 0.228201 0)
(0.999549 0.00753076 0)
(1.00185 0.0284523 0)
(1.00606 0.039679 0)
(1.00312 0.0464059 0)
(0.993631 0.0511578 0)
(0.978575 0.0549422 0)
(0.958418 0.0590483 0)
(0.93397 0.0641899 0)
(0.905769 0.0705645 0)
(0.873906 0.0781834 0)
(0.838205 0.0869573 0)
(0.798284 0.0966812 0)
(0.753551 0.107013 0)
(0.703063 0.117317 0)
(0.645519 0.126349 0)
(0.57835 0.132767 0)
(0.497266 0.151482 0)
(0.401493 0.261939 0)
(0.999583 0.0077783 0)
(1.00156 0.0272016 0)
(1.00534 0.0395105 0)
(1.00398 0.0480486 0)
(0.997285 0.0547856 0)
(0.98564 0.0606238 0)
(0.969215 0.0667066 0)
(0.948542 0.0737599 0)
(0.92404 0.0820859 0)
(0.895813 0.0918086 0)
(0.863734 0.102951 0)
(0.82747 0.115438 0)
(0.786461 0.129097 0)
(0.739829 0.14353 0)
(0.686325 0.15793 0)
(0.623837 0.172172 0)
(0.549817 0.199005 0)
(0.466758 0.294865 0)
(0.999613 0.00768102 0)
(1.00116 0.0260121 0)
(1.00427 0.0391819 0)
(1.00366 0.0492311 0)
(0.998744 0.0577338 0)
(0.989562 0.0655066 0)
(0.976081 0.0735439 0)
(0.958608 0.0825474 0)
(0.93743 0.0928881 0)
(0.912628 0.104781 0)
(0.884102 0.118352 0)
(0.85158 0.133657 0)
(0.814589 0.150682 0)
(0.772412 0.169246 0)
(0.72403 0.188919 0)
(0.667915 0.210281 0)
(0.60304 0.243505 0)
(0.532987 0.327036 0)
(0.999685 0.00761958 0)
(1.0008 0.0250795 0)
(1.00315 0.0388539 0)
(1.00282 0.0501453 0)
(0.999045 0.0602043 0)
(0.991665 0.0697601 0)
(0.980531 0.0796698 0)
(0.96578 0.0905948 0)
(0.947587 0.102947 0)
(0.926004 0.117011 0)
(0.900954 0.133001 0)
(0.872231 0.151081 0)
(0.839486 0.171369 0)
(0.802206 0.193855 0)
(0.759678 0.218382 0)
(0.710954 0.245817 0)
(0.656083 0.283823 0)
(0.598623 0.357642 0)
(0.999765 0.00761614 0)
(1.00049 0.0243902 0)
(1.00212 0.0385933 0)
(1.00183 0.0509117 0)
(0.99881 0.062332 0)
(0.99279 0.0735023 0)
(0.983565 0.085162 0)
(0.971162 0.0979257 0)
(0.955674 0.112226 0)
(0.93713 0.128395 0)
(0.91548 0.146713 0)
(0.890594 0.167427 0)
(0.862257 0.190744 0)
(0.830169 0.216767 0)
(0.793926 0.245501 0)
(0.753069 0.277814 0)
(0.70827 0.319176 0)
(0.662611 0.385636 0)
(0.999833 0.00763643 0)
(1.00026 0.0239105 0)
(1.00129 0.0384348 0)
(1.00094 0.0516056 0)
(0.99844 0.0642056 0)
(0.993497 0.0768142 0)
(0.98588 0.090073 0)
(0.975551 0.104548 0)
(0.962551 0.120677 0)
(0.946901 0.138819 0)
(0.928586 0.159298 0)
(0.907553 0.182408 0)
(0.88372 0.208406 0)
(0.856979 0.237445 0)
(0.827194 0.269598 0)
(0.794272 0.305569 0)
(0.759151 0.349053 0)
(0.724293 0.409973 0)
(0.999882 0.00765773 0)
(1.00012 0.0236249 0)
(1.00074 0.0383814 0)
(1.00033 0.0522014 0)
(0.998232 0.0657306 0)
(0.994134 0.0794947 0)
(0.98782 0.0940636 0)
(0.979227 0.109959 0)
(0.968372 0.127611 0)
(0.95528 0.147389 0)
(0.939974 0.169632 0)
(0.922471 0.194651 0)
(0.902794 0.222711 0)
(0.880984 0.253969 0)
(0.857092 0.288495 0)
(0.831255 0.326776 0)
(0.804468 0.371263 0)
(0.778652 0.428182 0)
(0.999921 0.00768462 0)
(1.00004 0.0234486 0)
(1.00039 0.0383935 0)
(0.999982 0.0527553 0)
(0.998266 0.0670791 0)
(0.994954 0.0818451 0)
(0.989853 0.0975635 0)
(0.982894 0.114714 0)
(0.974086 0.133708 0)
(0.96347 0.154912 0)
(0.951104 0.178662 0)
(0.937068 0.205263 0)
(0.921472 0.234962 0)
(0.904466 0.267891 0)
(0.886234 0.304077 0)
(0.867051 0.343784 0)
(0.847842 0.38851 0)
(0.83006 0.442006 0)
(0.999956 0.00770926 0)
(1.00003 0.0233274 0)
(1.00024 0.0384415 0)
(0.99996 0.0532934 0)
(0.998735 0.0683552 0)
(0.996327 0.0840673 0)
(0.992581 0.100883 0)
(0.987438 0.119233 0)
(0.980915 0.139503 0)
(0.973075 0.162037 0)
(0.964015 0.187148 0)
(0.953872 0.215109 0)
(0.942829 0.246125 0)
(0.931115 0.280279 0)
(0.918993 0.317525 0)
(0.906803 0.357907 0)
(0.895303 0.402135 0)
(0.885469 0.452159 0)
(0.999986 0.0077123 0)
(1.00012 0.0232084 0)
(1.0004 0.0384397 0)
(1.00044 0.0536842 0)
(0.999907 0.0693634 0)
(0.998613 0.0858818 0)
(0.996445 0.103639 0)
(0.99337 0.123013 0)
(0.989424 0.144347 0)
(0.984692 0.167945 0)
(0.979311 0.194074 0)
(0.973459 0.222952 0)
(0.967364 0.254717 0)
(0.96129 0.289386 0)
(0.955528 0.326838 0)
(0.950405 0.366926 0)
(0.946472 0.409799 0)
(0.944271 0.45621 0)
(1.00002 0.0076484 0)
(1.00032 0.022956 0)
(1.00093 0.0381725 0)
(1.0016 0.0536254 0)
(1.00207 0.0697009 0)
(1.00222 0.0867651 0)
(1.00196 0.105164 0)
(1.00129 0.125217 0)
(1.00028 0.147209 0)
(0.99902 0.171386 0)
(0.997675 0.197947 0)
(0.996443 0.227038 0)
(0.995558 0.258721 0)
(0.995279 0.292942 0)
(0.995871 0.329518 0)
(0.997598 0.368183 0)
(1.00081 0.408748 0)
(1.00571 0.451263 0)
(1.00005 0.00743567 0)
(1.00068 0.0223096 0)
(1.00191 0.037222 0)
(1.00358 0.0525427 0)
(1.00548 0.0686292 0)
(1.00749 0.0858012 0)
(1.00958 0.104345 0)
(1.01174 0.124513 0)
(1.01406 0.146519 0)
(1.01664 0.170532 0)
(1.01963 0.196676 0)
(1.02323 0.225015 0)
(1.02764 0.25554 0)
(1.03307 0.288141 0)
(1.03974 0.322604 0)
(1.04781 0.358619 0)
(1.05747 0.395856 0)
(1.06871 0.434039 0)
(1.0001 0.00693242 0)
(1.0012 0.0208279 0)
(1.00338 0.0348758 0)
(1.00647 0.0494675 0)
(1.01025 0.0649271 0)
(1.01461 0.0815174 0)
(1.0195 0.0994551 0)
(1.02492 0.118915 0)
(1.03093 0.140029 0)
(1.03763 0.162885 0)
(1.04514 0.187526 0)
(1.05359 0.213944 0)
(1.06316 0.24207 0)
(1.07397 0.271766 0)
(1.08617 0.302815 0)
(1.09984 0.334931 0)
(1.11505 0.367777 0)
(1.13167 0.401011 0)
(1.00017 0.00591691 0)
(1.00192 0.0178263 0)
(1.00535 0.0300204 0)
(1.01025 0.0428932 0)
(1.01634 0.0567185 0)
(1.02344 0.0716872 0)
(1.03149 0.0879353 0)
(1.04045 0.105552 0)
(1.05033 0.124583 0)
(1.0612 0.145038 0)
(1.07311 0.16689 0)
(1.08617 0.190074 0)
(1.10044 0.214488 0)
(1.11601 0.239987 0)
(1.13292 0.266383 0)
(1.15121 0.293447 0)
(1.17084 0.320917 0)
(1.19168 0.348518 0)
(1.00023 0.00452633 0)
(1.00258 0.0136525 0)
(1.0072 0.0232122 0)
(1.01376 0.0336302 0)
(1.02183 0.0451247 0)
(1.03118 0.0578074 0)
(1.04168 0.0717317 0)
(1.05328 0.0869034 0)
(1.06596 0.103294 0)
(1.07974 0.120849 0)
(1.09465 0.139496 0)
(1.11076 0.15914 0)
(1.12809 0.179667 0)
(1.14668 0.200941 0)
(1.16654 0.222807 0)
(1.18766 0.24509 0)
(1.20999 0.267603 0)
(1.2334 0.290157 0)
(1.00026 0.00313592 0)
(1.00306 0.00947968 0)
(1.00862 0.0164798 0)
(1.01642 0.0246002 0)
(1.02587 0.0339712 0)
(1.03668 0.0446125 0)
(1.04869 0.0564947 0)
(1.06183 0.0695452 0)
(1.07607 0.0836704 0)
(1.09143 0.0987712 0)
(1.10794 0.114744 0)
(1.12562 0.131481 0)
(1.1445 0.148865 0)
(1.1646 0.166772 0)
(1.18589 0.185072 0)
(1.20836 0.203626 0)
(1.23193 0.222293 0)
(1.25652 0.24094 0)
(1.00025 0.00176192 0)
(1.00339 0.00523175 0)
(1.00977 0.00968486 0)
(1.01857 0.0156372 0)
(1.02902 0.0230646 0)
(1.04077 0.0318758 0)
(1.05368 0.0419488 0)
(1.06767 0.0531234 0)
(1.08272 0.0652433 0)
(1.09887 0.0781726 0)
(1.11614 0.0917894 0)
(1.13458 0.105978 0)
(1.15419 0.120629 0)
(1.17498 0.13563 0)
(1.19692 0.150874 0)
(1.21998 0.166249 0)
(1.24408 0.181649 0)
(1.26915 0.196976 0)
(1.00018 0.000508611 0)
(1.00349 0.00106113 0)
(1.0106 0.00310041 0)
(1.0202 0.00713729 0)
(1.03128 0.0128959 0)
(1.04352 0.0201721 0)
(1.05679 0.0287383 0)
(1.07101 0.0383303 0)
(1.08622 0.0487307 0)
(1.10249 0.0597773 0)
(1.11989 0.07134 0)
(1.13845 0.0833068 0)
(1.15819 0.0955779 0)
(1.1791 0.108061 0)
(1.20116 0.12067 0)
(1.22432 0.133318 0)
(1.24849 0.145925 0)
(1.27361 0.158423 0)
(1.00002 -0.000565237 0)
(1.00328 -0.00302835 0)
(1.0111 -0.00314806 0)
(1.0213 -0.000665936 0)
(1.03264 0.00376085 0)
(1.04489 0.00984754 0)
(1.05792 0.0172412 0)
(1.07175 0.0255521 0)
(1.08649 0.0345071 0)
(1.10229 0.0439324 0)
(1.11924 0.0537029 0)
(1.13741 0.0637203 0)
(1.1568 0.0739038 0)
(1.17742 0.0841832 0)
(1.19922 0.0944947 0)
(1.22214 0.104777 0)
(1.24609 0.114974 0)
(1.27099 0.125036 0)
(0.999728 -0.0011484 0)
(1.00267 -0.00696923 0)
(1.0113 -0.00897528 0)
(1.02183 -0.00761922 0)
(1.03289 -0.0041307 0)
(1.04449 0.00115134 0)
(1.05656 0.00770975 0)
(1.06924 0.0150116 0)
(1.08282 0.0227466 0)
(1.09753 0.030752 0)
(1.11352 0.0389261 0)
(1.13085 0.0471977 0)
(1.14953 0.0555132 0)
(1.16954 0.0638289 0)
(1.19082 0.0721055 0)
(1.21328 0.0803046 0)
(1.23683 0.0883911 0)
(1.26137 0.0963327 0)
(0.998904 -0.000176084 0)
(1.00131 -0.0100492 0)
(1.0111 -0.013997 0)
(1.0215 -0.0134704 0)
(1.03135 -0.0105049 0)
(1.04122 -0.00562918 0)
(1.05126 0.000383889 0)
(1.06185 0.00686819 0)
(1.07348 0.0135182 0)
(1.08649 0.0202132 0)
(1.10104 0.0269011 0)
(1.11717 0.033553 0)
(1.13488 0.0401498 0)
(1.15408 0.0466764 0)
(1.17469 0.0531171 0)
(1.19659 0.0594534 0)
(1.21964 0.0656687 0)
(1.24376 0.0717434 0)
(0.996697 0.00205063 0)
(0.99853 -0.0116686 0)
(1.00984 -0.0174904 0)
(1.01906 -0.017743 0)
(1.02598 -0.0149463 0)
(1.03235 -0.0101231 0)
(1.03884 -0.00448143 0)
(1.04615 0.0012326 0)
(1.05498 0.00680371 0)
(1.06572 0.0121849 0)
(1.07846 0.0174054 0)
(1.09317 0.0224923 0)
(1.10974 0.0274625 0)
(1.12804 0.0323259 0)
(1.14792 0.0370852 0)
(1.16922 0.0417361 0)
(1.19177 0.0462752 0)
(1.21548 0.0506945 0)
(0.994746 -0.00648323 0)
(0.99587 -0.0175348 0)
(1.00609 -0.0204514 0)
(1.01067 -0.0202174 0)
(1.01125 -0.0171246 0)
(1.01123 -0.012104 0)
(1.01201 -0.00680799 0)
(1.01468 -0.00195472 0)
(1.01988 0.0024227 0)
(1.0279 0.00640386 0)
(1.03863 0.01013 0)
(1.05181 0.0136815 0)
(1.0672 0.0171013 0)
(1.08456 0.0204134 0)
(1.10367 0.0236294 0)
(1.12434 0.026751 0)
(1.14636 0.0297806 0)
(1.16963 0.0327166 0)
(1.01354 -0.0690565 0)
(1.00762 -0.062471 0)
(0.998305 -0.0336184 0)
(0.983861 -0.022369 0)
(0.969353 -0.0170241 0)
(0.957837 -0.0118476 0)
(0.950145 -0.00714893 0)
(0.946794 -0.0033329 0)
(0.947713 -0.000341183 0)
(0.952812 0.00222691 0)
(0.96142 0.00454846 0)
(0.972935 0.00670989 0)
(0.98694 0.00875816 0)
(1.00312 0.0107155 0)
(1.0212 0.0125934 0)
(1.04095 0.0143964 0)
(1.06211 0.0161237 0)
(1.08462 0.0177774 0)
(0.968248 0.249707 0)
(0.972652 0.0814028 0)
(0.916229 0.00900144 0)
(0.846677 -0.00630199 0)
(0.797492 -0.00649255 0)
(0.767994 -0.00388731 0)
(0.750837 -0.00162748 0)
(0.741944 -0.000126419 0)
(0.739478 0.000674981 0)
(0.741092 0.00135309 0)
(0.746029 0.00201937 0)
(0.753896 0.00268063 0)
(0.764352 0.0033344 0)
(0.777086 0.00397354 0)
(0.791806 0.00459186 0)
(0.808259 0.00518609 0)
(0.826165 0.00574691 0)
(0.845408 0.00628774 0)
(0.0573212 -0.0384679 -6.53461e-21)
(0.104435 -0.105985 5.04232e-21)
(0.182337 -0.142669 0)
(0.308094 -0.152859 0)
(0.405907 -0.146142 0)
(0.485169 -0.128434 -5.40568e-21)
(0.549826 -0.105397 0)
(0.597402 -0.0802967 0)
(0.626039 -0.054354 0)
(0.637655 -0.0276134 0)
(0.628802 -0.00151701 5.68744e-21)
(0.602717 0.0216042 0)
(0.56392 0.0395292 0)
(0.516966 0.0509136 0)
(0.4661 0.0555303 0)
(0.414652 0.0543268 5.92259e-21)
(0.364251 0.0491835 0)
(0.314422 0.0424456 0)
(0.262677 0.036693 0)
(0.205247 0.0342983 0)
(0.137752 0.0372303 0)
(0.055611 0.0468533 0)
(-0.04577 0.0632733 0)
(-0.17079 0.086479 7.68386e-21)
(-0.321702 0.116214 -7.37022e-21)
(-0.49807 0.149073 7.12121e-21)
(-0.69681 0.180613 6.97084e-21)
(-0.913036 0.207373 0)
(-1.14095 0.227256 0)
(-1.37453 0.239372 -7.20089e-21)
(-1.60809 0.243796 -7.46572e-21)
(-1.83662 0.241285 0)
(-2.056 0.233002 0)
(-2.26306 0.220272 -8.518e-21)
(-2.45558 0.2044 0)
(-2.63212 0.186541 0)
(-2.79199 0.167645 9.57529e-21)
(-2.935 0.148435 0)
(-3.06137 0.129425 1.01425e-20)
(-3.17158 0.110947 2.07433e-20)
(-3.26626 0.0932006 0)
(-3.34608 0.0762893 0)
(-3.41171 0.0602666 0)
(-3.4638 0.0451764 0)
(-3.50299 0.0311104 0)
(-3.5299 0.0182797 2.18912e-20)
(-3.54495 0.00701793 2.18261e-20)
(-3.54841 -0.00240766 2.16686e-20)
(-3.54212 -0.0100968 0)
(-3.52812 -0.0166504 -2.10708e-20)
(-3.50646 -0.0226454 0)
(-3.47764 -0.0283096 2.01485e-20)
(-3.44186 -0.033762 1.95662e-20)
(-3.39929 -0.0390597 0)
(-3.35005 -0.0442323 0)
(-3.29425 -0.0492948 0)
(-3.23198 -0.0542543 1.64585e-20)
(-3.16333 -0.0591133 0)
(-3.08842 -0.0638713 0)
(-3.00735 -0.0685263 0)
(-2.92024 -0.073075 0)
(-2.82725 -0.0775131 0)
(-2.72851 -0.0818363 0)
(-2.6242 -0.0860399 0)
(-2.5145 -0.0901195 0)
(-2.3996 -0.0940706 -5.39218e-21)
(-2.27974 -0.0978895 0)
(-2.15513 -0.101573 0)
(-2.02604 -0.105118 7.05065e-22)
(-1.89271 -0.108524 -9.35419e-22)
(-1.75544 -0.111789 0)
(-1.61452 -0.114914 4.30417e-21)
(-1.47026 -0.1179 -6.02154e-21)
(-1.32298 -0.120748 0)
(-1.17302 -0.123462 9.49246e-21)
(-1.02073 -0.126042 0)
(-0.866468 -0.128489 0)
(-0.710612 -0.130797 -1.46889e-20)
(-0.553579 -0.132939 0)
(-0.395868 -0.13481 1.80585e-20)
(-0.238128 -0.136068 0)
(-0.0811326 -0.135937 -2.11327e-20)
(0.0747108 -0.133322 -2.11676e-20)
(0.229813 -0.128831 -1.99532e-20)
(0.383598 -0.123783 -3.73743e-20)
(0.535252 -0.118633 3.47723e-20)
(0.684181 -0.11345 0)
(0.829891 -0.108229 0)
(0.9719 -0.102959 0)
(1.10972 -0.0976311 2.41584e-20)
(1.24288 -0.0922398 2.15572e-20)
(1.37088 -0.0867816 -1.90127e-20)
(1.49326 -0.081256 0)
(1.60954 -0.0756643 1.41549e-20)
(1.71926 -0.0700081 1.18694e-20)
(1.82198 -0.0642884 9.69656e-21)
(1.91725 -0.0585032 0)
(2.00461 -0.052645 0)
(2.08359 -0.0467051 0)
(2.15369 -0.0406595 2.35545e-21)
(2.21437 -0.0343941 0)
(2.26474 -0.027859 0)
(2.30378 -0.0209548 1.43438e-21)
(2.33154 -0.0114725 0)
(2.33901 0.00254888 0)
(2.32029 0.0201742 3.36466e-21)
(2.27372 0.0398401 0)
(2.19699 0.0604016 0)
(2.08837 0.0805127 -3.29771e-21)
(1.9482 0.0980139 -2.8661e-21)
(1.77952 0.109989 0)
(1.59109 0.11165 1.63006e-21)
(1.40054 0.0984192 0)
(1.21462 0.0929227 -9.89259e-23)
(1.05902 0.0867694 0)
(0.930454 0.0715549 1.4947e-21)
(0.838048 0.0551031 2.19111e-21)
(0.765571 0.0281563 0)
(0.70702 0.0128272 0)
(0.654173 0.00616346 0)
(0.603873 0.00653747 0)
(0.55413 0.00898114 0)
(0.505173 0.0115238 0)
(0.458259 0.0133769 0)
(0.414409 0.0142166 4.99857e-21)
(0.374248 0.0141173 -4.90744e-21)
(0.338029 0.013359 0)
(0.305746 0.0122339 0)
(0.27726 0.0109477 0)
(0.252376 0.00961786 0)
(0.230873 0.00830716 -8.12786e-21)
(0.212514 0.00705164 0)
(0.197056 0.00587454 7.52166e-21)
(0.184248 0.00479137 -7.26968e-21)
(0.173834 0.00381167 0)
(0.165561 0.00294008 0)
(0.159181 0.00217757 0)
(0.154452 0.00152236 6.58881e-21)
(0.151145 0.00097028 6.48613e-21)
(0.149042 0.000516245 0)
(0.147949 0.000156245 6.33746e-21)
(0.147701 -0.000125425 6.28482e-21)
(0.148142 -0.000387948 -6.24158e-21)
(0.14915 -0.000596766 0)
(0.150619 -0.000755841 0)
(0.152447 -0.000873211 -6.15278e-21)
(0.154543 -0.000954759 0)
(0.156829 -0.00100515 0)
(0.159233 -0.00102849 0)
(0.161697 -0.00102893 0)
(0.164167 -0.00101102 6.04797e-21)
(0.166604 -0.000979577 6.02539e-21)
(0.168976 -0.000939233 0)
(0.171262 -0.000894038 5.97564e-21)
(0.173452 -0.00084718 0)
(0.175538 -0.00080086 0)
(0.177521 -0.000756182 5.88899e-21)
(0.179402 -0.000713019 0)
(0.18118 -0.000670154 5.82434e-21)
(0.182853 -0.00062594 0)
(0.184417 -0.000579251 0)
(0.185865 -0.000530135 5.72042e-21)
(0.187191 -0.000479754 0)
(0.188393 -0.000429764 5.64834e-21)
(0.189473 -0.000381553 0)
(0.190433 -0.000335729 0)
(0.191279 -0.000291924 0)
(0.192013 -0.000248481 -5.50262e-21)
(0.192634 -0.000201462 0)
(0.193135 -0.000142341 5.4315e-21)
(0.193477 -9.12129e-05 0)
(0.19362 -3.97015e-05 0)
(0.19353 3.5656e-05 0)
(0.193155 0.000143808 0)
(0.192432 0.000283361 0)
(0.191246 0.000456606 0)
(0.189544 0.000684453 0)
(0.186626 0.00106362 -1.03985e-20)
(0.1839 0.00168982 0)
(0.170892 0.00417866 0)
(0.0707445 -0.243727 1.93161e-20)
(0.165361 -0.307276 -1.43715e-20)
(0.249861 -0.314763 0)
(0.319814 -0.291665 8.1969e-21)
(0.371154 -0.249364 0)
(0.406366 -0.197869 3.73881e-21)
(0.427728 -0.143506 -8.14531e-21)
(0.436109 -0.0893997 -8.29471e-21)
(0.431998 -0.0371001 0)
(0.415587 0.012449 -8.54876e-21)
(0.39102 0.0572902 -4.19849e-21)
(0.356964 0.095071 0)
(0.312213 0.123719 0)
(0.255976 0.142521 0)
(0.187752 0.152873 0)
(0.106857 0.158528 -4.35671e-21)
(0.0119731 0.164804 0)
(-0.0990506 0.177056 8.03854e-21)
(-0.228984 0.199468 0)
(-0.380566 0.23424 0)
(-0.555824 0.281313 -7.10047e-21)
(-0.754944 0.338153 0)
(-0.97503 0.399901 6.8345e-21)
(-1.21045 0.460658 -3.56759e-21)
(-1.45433 0.514746 3.5209e-21)
(-1.69953 0.557291 -3.52457e-21)
(-1.93929 0.585136 -3.59072e-21)
(-2.16782 0.597169 0)
(-2.38063 0.594021 0)
(-2.57463 0.577556 4.20468e-21)
(-2.74815 0.550351 -5.35726e-21)
(-2.90077 0.515233 0)
(-3.03305 0.474926 0)
(-3.14628 0.431821 5.68994e-21)
(-3.24217 0.387856 0)
(-3.32259 0.344491 0)
(-3.38944 0.30273 -6.8167e-21)
(-3.44448 0.263193 0)
(-3.48925 0.22619 7.96484e-21)
(-3.52509 0.191802 -1.53087e-20)
(-3.55312 0.159951 0)
(-3.57425 0.130465 0)
(-3.58925 0.103114 -3.32747e-20)
(-3.59877 0.0776574 -3.35258e-20)
(-3.60334 0.0538823 -3.36306e-20)
(-3.60344 0.0316869 1.71588e-20)
(-3.59955 0.0111486 -1.63481e-20)
(-3.592 -0.00759108 -4.91636e-20)
(-3.57975 -0.0246412 3.24772e-20)
(-3.56122 -0.0404045 1.55641e-20)
(-3.53638 -0.0552861 0)
(-3.50507 -0.0695039 -1.47177e-20)
(-3.46724 -0.0831939 1.50478e-20)
(-3.42294 -0.0964306 0)
(-3.3722 -0.109254 0)
(-3.3151 -0.121684 0)
(-3.25171 -0.133726 -1.1627e-20)
(-3.18211 -0.145377 0)
(-3.10639 -0.156628 2.12962e-20)
(-3.02467 -0.167465 0)
(-2.93705 -0.177872 1.79651e-20)
(-2.84367 -0.187831 0)
(-2.74467 -0.197324 -1.43771e-20)
(-2.64022 -0.206329 0)
(-2.53051 -0.214829 1.05906e-20)
(-2.41571 -0.222804 -5.13031e-21)
(-2.29606 -0.230236 0)
(-2.17177 -0.237107 -4.68163e-21)
(-2.04309 -0.243403 -4.4379e-22)
(-1.9103 -0.249109 5.81492e-22)
(-1.77366 -0.254214 0)
(-1.63348 -0.258707 6.3638e-22)
(-1.49006 -0.26258 3.59319e-21)
(-1.34373 -0.265826 0)
(-1.19483 -0.26844 -5.49334e-21)
(-1.04372 -0.270417 1.06211e-20)
(-0.89078 -0.27175 0)
(-0.736387 -0.272427 8.06844e-21)
(-0.580947 -0.272426 0)
(-0.424851 -0.271693 -2.62933e-20)
(-0.268437 -0.270111 0)
(-0.112008 -0.267455 2.99342e-20)
(0.0438706 -0.263443 1.09762e-20)
(0.198562 -0.258157 -8.5516e-21)
(0.351495 -0.251985 -1.66617e-20)
(0.502346 -0.245134 1.60625e-20)
(0.650696 -0.237672 0)
(0.796062 -0.229619 0)
(0.937959 -0.220986 0)
(1.0759 -0.211788 -4.34521e-20)
(1.20939 -0.20204 -1.41695e-20)
(1.33797 -0.191765 1.27698e-20)
(1.46116 -0.180987 0)
(1.5785 -0.169732 7.60784e-21)
(1.68954 -0.158026 -8.44392e-21)
(1.79385 -0.145888 -7.01644e-21)
(1.89099 -0.133333 0)
(1.98052 -0.120363 0)
(2.062 -0.106963 0)
(2.13498 -0.0930873 -1.8079e-21)
(2.19899 -0.0786094 0)
(2.25363 -0.0633806 -1.52222e-21)
(2.29854 -0.0470219 -4.27712e-21)
(2.33298 -0.027856 4.50309e-21)
(2.36205 -0.00455724 0)
(2.38704 0.0226725 3.52578e-21)
(2.40478 0.0532949 0)
(2.41135 0.0870578 6.46551e-21)
(2.40182 0.123331 -3.38406e-21)
(2.37018 0.16032 -2.96057e-21)
(2.30979 0.194294 0)
(2.21498 0.219215 -4.08604e-21)
(2.08309 0.229331 1.46853e-21)
(1.91776 0.222228 7.31537e-23)
(1.72469 0.194956 0)
(1.52481 0.156446 -1.14083e-21)
(1.32549 0.12053 -6.33204e-21)
(1.15298 0.0970353 0)
(1.00983 0.0819099 -6.3881e-21)
(0.895178 0.0729943 -7.13985e-21)
(0.802592 0.0676143 -7.76002e-21)
(0.725438 0.063694 0)
(0.658259 0.0600141 0)
(0.597611 0.0558467 0)
(0.541879 0.0510815 4.39985e-21)
(0.490593 0.0459832 4.20616e-21)
(0.443839 0.0408451 0)
(0.401862 0.0358569 8.04767e-21)
(0.364824 0.0311246 7.74651e-21)
(0.332688 0.0267115 0)
(0.305223 0.0226543 7.07396e-21)
(0.282068 0.0189689 1.37165e-20)
(0.2628 0.0156558 -6.56075e-21)
(0.24699 0.0127062 -6.41042e-21)
(0.234227 0.0101058 0)
(0.224127 0.00783601 0)
(0.216339 0.00587591 0)
(0.210546 0.00420246 -5.75221e-21)
(0.206458 0.00279094 5.66991e-21)
(0.203821 0.00161578 1.11829e-20)
(0.202406 0.000653937 -5.53456e-21)
(0.202004 -0.000118291 5.47905e-21)
(0.202446 -0.000756108 5.45184e-21)
(0.203563 -0.00126127 0)
(0.205207 -0.00164891 0)
(0.20726 -0.00193584 -5.35701e-21)
(0.209619 -0.00213656 0)
(0.212197 -0.00226341 0)
(0.214917 -0.00232732 1.06341e-20)
(0.217715 -0.00233862 0)
(0.220536 -0.00230758 5.27567e-21)
(0.223334 -0.00224437 -5.27894e-21)
(0.226075 -0.00215869 0)
(0.228734 -0.00205916 5.22286e-21)
(0.231292 -0.00195283 0)
(0.23374 -0.00184486 0)
(0.236072 -0.00173825 -5.17324e-21)
(0.238287 -0.00163382 1.02814e-20)
(0.240385 -0.00153053 -5.12177e-21)
(0.242365 -0.00142646 0)
(0.244227 -0.00132009 0)
(0.245966 -0.00121125 5.02639e-21)
(0.247581 -0.00110134 0)
(0.24907 -0.000992616 4.96926e-21)
(0.250431 -0.000887216 0)
(0.251666 -0.000786269 0)
(0.252777 -0.00068932 0)
(0.253765 -0.000593855 4.85947e-21)
(0.254627 -0.000494892 0)
(0.255353 -0.000384256 -4.80074e-21)
(0.255932 -0.000261339 0)
(0.256345 -0.000114941 0)
(0.25655 6.54391e-05 9.43046e-21)
(0.256496 0.000289671 -9.37947e-21)
(0.25612 0.000567942 0)
(0.255328 0.000917108 0)
(0.254076 0.00139064 0)
(0.251872 0.00208905 2.76549e-20)
(0.249813 0.00347491 0)
(0.24216 0.00685481 -1.83632e-20)
(0.0555667 -0.480357 4.21217e-22)
(0.128103 -0.51456 1.80137e-20)
(0.178935 -0.453867 0)
(0.213452 -0.379497 -1.45397e-20)
(0.2326 -0.301183 0)
(0.238353 -0.221831 0)
(0.232355 -0.143588 -1.73037e-22)
(0.215379 -0.0680354 7.174e-21)
(0.187729 0.00372929 7.3698e-21)
(0.149535 0.0709934 7.40593e-21)
(0.10092 0.133506 0)
(0.0415607 0.190536 0)
(-0.0296729 0.241053 -7.24064e-21)
(-0.114772 0.285057 -1.36965e-20)
(-0.216176 0.324728 1.28314e-20)
(-0.336546 0.364271 0)
(-0.478196 0.408744 1.12858e-20)
(-0.642415 0.462296 -5.43051e-21)
(-0.828767 0.526647 0)
(-1.03463 0.600387 1.00346e-20)
(-1.25505 0.679108 4.85846e-21)
(-1.48318 0.756373 -1.01297e-20)
(-1.71103 0.825219 -4.79962e-21)
(-1.93069 0.879529 0)
(-2.1355 0.914957 1.17732e-20)
(-2.32089 0.929436 1.26581e-20)
(-2.48459 0.92314 0)
(-2.62645 0.898077 1.47677e-20)
(-2.74791 0.857476 0)
(-2.85146 0.80515 1.71215e-20)
(-2.94002 0.74496 7.9144e-21)
(-3.01653 0.680421 0)
(-3.08359 0.614461 0)
(-3.14331 0.549332 0)
(-3.19724 0.486615 0)
(-3.24642 0.427304 0)
(-3.29145 0.371915 0)
(-3.33261 0.320608 2.49842e-20)
(-3.36997 0.273292 -3.7876e-20)
(-3.40342 0.229727 0)
(-3.43282 0.189592 0)
(-3.45795 0.152537 0)
(-3.47861 0.118219 -6.87609e-22)
(-3.49458 0.0863121 2.64412e-20)
(-3.50564 0.0565131 5.35793e-20)
(-3.51151 0.0285164 -5.34133e-20)
(-3.51186 0.00197996 -2.68274e-20)
(-3.50638 -0.0234892 2.57849e-20)
(-3.49481 -0.0482214 6.9764e-22)
(-3.47704 -0.0722815 2.54672e-20)
(-3.45306 -0.0956252 0)
(-3.42285 -0.11827 2.41257e-20)
(-3.38638 -0.140243 7.90191e-22)
(-3.34368 -0.161571 0)
(-3.29476 -0.182268 0)
(-3.23966 -0.202337 -2.0489e-20)
(-3.17845 -0.221773 0)
(-3.11119 -0.240558 0)
(-3.03796 -0.258673 1.80354e-20)
(-2.95886 -0.27609 3.16074e-20)
(-2.87398 -0.292779 -1.34598e-20)
(-2.78347 -0.308709 0)
(-2.68745 -0.323844 1.0686e-20)
(-2.58608 -0.33815 0)
(-2.47955 -0.351593 1.01631e-20)
(-2.36803 -0.364139 6.34309e-21)
(-2.25174 -0.375756 -1.2231e-20)
(-2.13091 -0.386413 -5.94986e-21)
(-2.00577 -0.396081 0)
(-1.87659 -0.404736 3.66186e-21)
(-1.74363 -0.412352 0)
(-1.6072 -0.41891 -4.16884e-21)
(-1.46759 -0.424389 -4.5111e-21)
(-1.32514 -0.428774 -7.07755e-21)
(-1.18018 -0.43205 9.53993e-21)
(-1.03306 -0.434202 -1.93041e-20)
(-0.884151 -0.435218 0)
(-0.733836 -0.435082 0)
(-0.582512 -0.433777 1.80546e-20)
(-0.430568 -0.431279 3.12197e-20)
(-0.278367 -0.427561 0)
(-0.126253 -0.422632 -1.29114e-20)
(0.0253204 -0.416572 0)
(0.175862 -0.409372 3.67613e-20)
(0.324859 -0.401001 2.86564e-21)
(0.471897 -0.391488 -2.73826e-21)
(0.616525 -0.380857 -2.18563e-20)
(0.758263 -0.369129 0)
(0.896623 -0.356329 1.9668e-20)
(1.03112 -0.34249 2.22603e-21)
(1.16129 -0.327651 0)
(1.28665 -0.311858 0)
(1.40675 -0.29516 0)
(1.52114 -0.277606 -1.33904e-20)
(1.62939 -0.259243 0)
(1.73107 -0.24011 0)
(1.82575 -0.220238 0)
(1.91304 -0.199641 0)
(1.99252 -0.178311 0)
(2.06377 -0.156211 -8.78053e-22)
(2.12641 -0.133262 0)
(2.18006 -0.109341 1.24511e-21)
(2.22435 -0.0843122 2.58351e-21)
(2.25882 -0.0580717 -3.73469e-21)
(2.28401 -0.029758 0)
(2.30106 0.0021567 -5.2856e-21)
(2.31075 0.0386162 0)
(2.31348 0.0801765 -5.53749e-21)
(2.30911 0.12696 5.17427e-21)
(2.29645 0.178063 1.50669e-20)
(2.27248 0.230723 0)
(2.23145 0.279612 9.09991e-21)
(2.16501 0.317899 2.77184e-21)
(2.06699 0.340492 0)
(1.93463 0.342956 -1.89491e-21)
(1.77273 0.32514 -4.8801e-21)
(1.59029 0.291369 1.14733e-20)
(1.40357 0.248946 0)
(1.22886 0.206917 5.6286e-21)
(1.076 0.17144 6.36075e-21)
(0.94778 0.144841 2.13342e-20)
(0.842008 0.126056 0)
(0.753815 0.112565 0)
(0.678496 0.101948 0)
(0.612689 0.0925492 8.02766e-21)
(0.554394 0.0835025 0)
(0.502605 0.0745023 0)
(0.456865 0.0655671 -7.19186e-21)
(0.416907 0.0568764 -6.91458e-21)
(0.382454 0.0486497 0)
(0.353142 0.0410596 0)
(0.328518 0.0341986 -1.22404e-20)
(0.308086 0.0280885 0)
(0.291352 0.0227069 1.13828e-20)
(0.277854 0.0180096 1.10486e-20)
(0.267168 0.0139436 0)
(0.258914 0.0104542 0)
(0.252753 0.00748717 -1.02766e-20)
(0.248383 0.00498953 -3.79566e-24)
(0.245535 0.00290938 -7.06097e-24)
(0.24397 0.00119504 0)
(0.24347 -0.000205138 -1.95582e-20)
(0.243845 -0.00132278 0)
(0.24493 -0.00220295 0)
(0.246573 -0.00287869 0)
(0.24865 -0.00337955 9.57408e-21)
(0.251051 -0.00373143 0)
(0.253685 -0.00395669 -1.89998e-20)
(0.256472 -0.00407497 -9.49038e-21)
(0.259346 -0.00410424 0)
(0.262251 -0.00406159 -9.43974e-21)
(0.265141 -0.00396343 0)
(0.26798 -0.00382523 0)
(0.27074 -0.00366085 -2.8029e-20)
(0.2734 -0.00348191 1.86101e-20)
(0.275947 -0.0032973 0)
(0.278373 -0.00311281 1.84605e-20)
(0.280675 -0.00293101 -9.20033e-21)
(0.282852 -0.00275175 0)
(0.284905 -0.00257321 0)
(0.286834 -0.0023935 0)
(0.288639 -0.00221204 -2.70307e-20)
(0.29032 -0.00203 0)
(0.291877 -0.00184987 -8.91685e-21)
(0.293309 -0.00167424 0)
(0.294616 -0.00150469 0)
(0.295798 -0.00134079 0)
(0.296856 -0.00117944 0)
(0.297785 -0.00101433 0)
(0.298579 -0.000835909 0)
(0.29923 -0.000630452 -1.71169e-20)
(0.299721 -0.000387618 0)
(0.30002 -9.83145e-05 -8.46749e-21)
(0.300087 0.00025128 2.52632e-20)
(0.299874 0.000678581 0)
(0.299302 0.00121267 0)
(0.298345 0.00191921 -1.66171e-20)
(0.296646 0.0029161 -1.65664e-20)
(0.295152 0.00465282 1.65423e-20)
(0.29015 0.0081991 1.64969e-20)
(0.022482 -0.621295 -3.2809e-20)
(0.0627666 -0.592503 -2.50896e-20)
(0.0739294 -0.498973 -1.44897e-20)
(0.0759711 -0.399064 -6.64684e-21)
(0.0682493 -0.297561 0)
(0.05031 -0.196326 1.29545e-20)
(0.0222295 -0.0968449 -6.41754e-21)
(-0.0161143 -0.000269527 0)
(-0.0651951 0.0926278 -6.66753e-21)
(-0.12573 0.18147 0)
(-0.198508 0.266255 1.22222e-20)
(-0.284452 0.347179 0)
(-0.384867 0.424747 5.67623e-21)
(-0.50145 0.50021 1.06402e-20)
(-0.635956 0.575871 -9.93961e-21)
(-0.789506 0.654528 0)
(-0.961778 0.738247 -8.76818e-21)
(-1.15036 0.827027 0)
(-1.35053 0.918053 0)
(-1.55557 1.00591 -7.94617e-21)
(-1.75766 1.08375 0)
(-1.9492 1.14499 -1.64927e-21)
(-2.1241 1.18484 0)
(-2.27856 1.20106 0)
(-2.41133 1.19398 2.3275e-21)
(-2.52339 1.16596 -1.06305e-20)
(-2.61735 1.12063 -1.39921e-20)
(-2.69667 1.06218 -1.24991e-20)
(-2.76497 0.994753 0)
(-2.82552 0.922072 -3.12271e-20)
(-2.88096 0.847184 0)
(-2.93318 0.772415 -1.83807e-20)
(-2.98336 0.699411 0)
(-3.03205 0.629232 0)
(-3.07938 0.562482 2.05197e-20)
(-3.12516 0.49942 0)
(-3.16901 0.44007 -2.16847e-20)
(-3.21045 0.384297 1.1222e-21)
(-3.24898 0.331875 4.41902e-20)
(-3.28412 0.282524 -4.59603e-20)
(-3.31541 0.235947 0)
(-3.34244 0.191849 0)
(-3.36485 0.149947 -2.4476e-20)
(-3.38234 0.109983 0)
(-3.39462 0.0717252 -2.29897e-20)
(-3.40143 0.0349685 2.29339e-20)
(-3.40258 -0.000491069 2.27575e-20)
(-3.3979 -0.0348597 0)
(-3.38732 -0.0682774 -2.20432e-20)
(-3.3708 -0.100828 -2.15707e-20)
(-3.3483 -0.132542 4.35342e-20)
(-3.31979 -0.16344 -2.04033e-20)
(-3.28524 -0.193537 -1.97137e-20)
(-3.24466 -0.222838 0)
(-3.19805 -0.251339 0)
(-3.14544 -0.279025 1.72621e-20)
(-3.08686 -0.305873 0)
(-3.02237 -0.331855 0)
(-2.95205 -0.356932 -2.86427e-20)
(-2.87597 -0.381062 -2.65067e-20)
(-2.79423 -0.4042 0)
(-2.70697 -0.426297 0)
(-2.6143 -0.447304 0)
(-2.51639 -0.467171 0)
(-2.4134 -0.485847 -1.49684e-20)
(-2.30552 -0.503284 1.44302e-20)
(-2.19295 -0.519436 1.01582e-20)