/*--------------------------------*- C++ -*----------------------------------*\
  =========                 |
  \\      /  F ield         | OpenFOAM: The Open Source CFD Toolbox
   \\    /   O peration     | Website:  https://openfoam.org
    \\  /    A nd           | Version:  9
     \\/     M anipulation  |
\*---------------------------------------------------------------------------*/
FoamFile
{
    format      ascii;
    class       volScalarField;
    location    "0.01";
    object      epsilon;
}
// * * * * * * * * * * * * * * * * * * * * * * * * * * * * * * * * * * * * * //

dimensions      [0 2 -3 0 0 0 0];

internalField   nonuniform List<scalar> 
12225
(
278.198
262.848
248.265
235.465
225.267
217.985
213.587
211.818
212.306
214.632
218.384
223.188
228.72
234.716
240.967
247.309
253.694
263.307
60.365
85.0761
96.1348
105.375
116.727
130.911
147.839
167.085
188.063
210.142
232.735
255.334
277.538
299.056
319.74
339.486
358.866
377.525
25.1677
35.8438
42.8335
47.957
52.6691
57.595
63.0196
69.0703
75.7671
83.0592
90.8556
99.0475
107.525
116.188
124.963
133.813
142.797
151.998
17.4931
21.2117
24.5599
27.3951
29.9014
32.2463
34.5494
36.8939
39.3309
41.8856
44.5651
47.3652
50.2757
53.2853
56.3858
59.58
62.8842
66.3207
15.4802
16.7267
18.1372
19.5153
20.8129
22.0324
23.1931
24.3184
25.4287
26.5389
27.6587
28.7941
29.9484
31.1238
32.3228
33.5507
34.8154
36.1166
14.9064
15.2321
15.7305
16.308
16.9109
17.5119
18.0993
18.6705
19.2276
19.7737
20.3121
20.8457
21.3768
21.9078
22.441
22.9795
23.527
24.0802
14.7446
14.7369
14.8291
14.9945
15.2078
15.4493
15.7049
15.9664
16.2289
16.4903
16.7494
17.0061
17.2606
17.5135
17.7658
18.0187
18.2736
18.5278
14.7011
14.5819
14.5101
14.4828
14.4933
14.5333
14.5949
14.6718
14.7593
14.854
14.9534
15.0561
15.161
15.2676
15.3756
15.4854
15.5971
15.7087
14.6901
14.5371
14.4066
14.3
14.2167
14.1547
14.1111
14.083
14.0675
14.0623
14.0653
14.075
14.0902
14.11
14.1337
14.161
14.1917
14.2245
14.6874
14.5251
14.376
14.2409
14.12
14.013
13.9193
13.8376
13.7669
13.7058
13.6533
13.6083
13.5699
13.5374
13.51
13.4875
13.4693
13.4551
14.6868
14.5221
14.3677
14.2235
14.0895
13.9654
13.851
13.7457
13.6491
13.5605
13.4794
13.4052
13.3373
13.2753
13.2187
13.1671
13.1204
13.0784
14.6866
14.5213
14.3656
14.219
14.0812
13.9519
13.8306
13.717
13.6106
13.5113
13.4184
13.3317
13.2508
13.1753
13.1049
13.0394
12.9786
12.9228
14.6865
14.521
14.3649
14.2175
14.0785
13.9473
13.8236
13.7068
13.5966
13.4927
13.3948
13.3024
13.2154
13.1334
13.0563
12.9837
12.9157
12.8526
14.6864
14.5208
14.3645
14.2169
14.0775
13.9457
13.8211
13.7033
13.5917
13.4862
13.3862
13.2917
13.2021
13.1174
13.0373
12.9615
12.8901
12.8235
14.6864
14.5207
14.3643
14.2166
14.077
13.945
13.8202
13.702
13.59
13.484
13.3835
13.2882
13.1979
13.1123
13.0312
12.9544
12.8819
12.814
14.6863
14.5206
14.3641
14.2163
14.0766
13.9446
13.8196
13.7013
13.5892
13.483
13.3823
13.2869
13.1964
13.1106
13.0292
12.9521
12.8792
12.8109
14.6863
14.5205
14.364
14.2161
14.0764
13.9442
13.8192
13.7008
13.5886
13.4823
13.3816
13.286
13.1954
13.1095
13.028
12.9507
12.8775
12.809
14.6863
14.5204
14.3639
14.216
14.0762
13.944
13.8189
13.7004
13.5881
13.4817
13.3809
13.2852
13.1944
13.1083
13.0266
12.9491
12.8756
12.8066
14.6863
14.5204
14.3639
14.216
14.0761
13.9439
13.8187
13.7001
13.5878
13.4813
13.3803
13.2844
13.1935
13.1071
13.0251
12.9472
12.8733
12.8038
14.6863
14.5205
14.3639
14.216
14.0762
13.944
13.8188
13.7002
13.5878
13.4812
13.3801
13.2841
13.193
13.1064
13.0241
12.9459
12.8717
12.8019
14.6863
14.5205
14.364
14.2162
14.0764
13.9443
13.8191
13.7006
13.5883
13.4819
13.3809
13.285
13.194
13.1076
13.0255
12.9476
12.8735
12.804
14.6863
14.5206
14.3643
14.2167
14.0773
13.9457
13.8212
13.7036
13.5925
13.4874
13.3879
13.2939
13.2049
13.1207
13.041
12.9656
12.8943
12.8276
14.6865
14.5213
14.3659
14.2202
14.0836
13.9559
13.8365
13.7251
13.6212
13.5242
13.4338
13.3495
13.2709
13.1975
13.1291
13.0653
13.0057
12.9509
14.6876
14.5264
14.3792
14.2464
14.1277
14.0223
13.9291
13.847
13.7745
13.7107
13.6545
13.6049
13.5612
13.5227
13.4889
13.4592
13.4334
13.4114
14.6976
14.566
14.4698
14.4057
14.3685
14.3527
14.3531
14.3656
14.387
14.4149
14.4477
14.484
14.5232
14.5645
14.6077
14.6525
14.6987
14.7462
14.773
14.816
14.9545
15.1495
15.3722
15.6049
15.8377
16.0657
16.2872
16.502
16.7107
16.9141
17.1133
17.3092
17.5029
17.6949
17.8859
18.0755
15.2542
16.1006
17.0412
17.9263
18.7274
19.4532
20.1177
20.7355
21.3204
21.8834
22.4329
22.9752
23.515
24.0555
24.5987
25.146
25.698
26.2522
18.0166
21.9195
24.8294
26.9509
28.666
30.178
31.5911
32.9707
34.3573
35.7739
37.2327
38.7385
40.2918
41.8899
43.5285
45.2026
46.9068
48.6286
33.7812
45.1671
50.7646
54.3346
57.5191
60.7944
64.3167
68.1326
72.2317
76.5761
81.1205
85.8198
90.6317
95.5181
100.447
105.391
110.339
115.262
163.217
157.171
151.331
145.803
140.79
136.409
132.705
129.669
127.265
125.437
124.124
123.263
122.794
122.659
122.809
123.198
123.788
124.54
24.8554
7.97388
8.75012
8.73305
39.426
45.0464
51.4735
58.6993
67.0774
76.9583
88.6339
102.345
118.286
136.607
157.402
180.705
206.479
234.62
264.96
297.275
331.302
366.747
403.306
440.671
478.545
516.648
554.722
592.536
629.884
666.596
702.53
737.582
771.689
804.838
837.08
868.548
899.479
929.613
956.365
979.365
998.246
1012.62
1022.11
1026.39
1025.18
1018.34
1005.79
987.613
964.004
935.296
901.944
864.51
823.645
780.064
734.526
687.81
640.7
593.983
548.462
505.032
464.812
428.816
398.546
373.088
349.356
327
305.994
286.359
268.113
251.261
235.789
221.672
208.871
197.338
187.018
177.852
169.778
162.729
156.642
151.448
147.084
143.484
140.584
138.324
136.641
135.478
134.779
134.489
134.558
134.936
135.579
136.444
137.492
138.688
140
141.399
142.86
144.361
145.882
147.407
148.922
150.417
151.881
153.308
154.691
156.028
157.315
158.55
159.734
160.861
161.921
162.914
163.842
164.705
165.505
166.243
166.923
167.548
168.122
168.651
169.14
169.593
170.017
170.414
170.79
171.147
171.489
171.818
172.135
172.444
172.744
173.039
173.327
173.611
173.892
174.169
174.443
174.716
174.987
175.257
175.526
175.795
176.063
176.332
176.602
176.872
177.143
177.416
177.69
177.965
178.242
178.521
178.801
179.083
179.367
179.652
179.938
180.226
180.513
180.801
181.087
181.371
181.651
181.926
182.192
182.446
182.684
182.9
183.085
183.23
183.318
183.331
183.239
183.001
182.552
181.794
180.575
178.566
175.52
169.323
49.6446
38.7017
44.7321
54.0985
64.3974
74.391
84.639
95.5041
107.196
119.75
133.068
146.964
161.211
175.572
189.824
203.777
217.279
230.221
242.532
254.176
265.144
275.448
285.113
294.176
302.682
310.682
318.235
325.411
332.289
338.963
345.544
352.16
358.962
366.122
373.839
382.341
391.867
402.694
413.616
423.937
433.361
441.609
448.4
453.46
456.537
457.415
455.928
451.971
445.509
436.58
425.297
411.842
396.457
379.436
361.103
341.806
321.897
301.721
281.605
261.855
242.74
224.426
207.051
191.24
176.71
163.094
150.344
138.456
127.426
117.243
107.886
99.3265
91.5297
84.4569
78.0661
72.3136
67.1549
62.5458
58.4427
54.8036
51.5881
48.7581
46.2776
44.1128
42.2326
40.6079
39.212
38.0206
37.0111
36.1632
35.4583
34.8796
34.4118
34.0411
33.7552
33.543
33.3946
33.301
33.2543
33.2476
33.2746
33.3298
33.4084
33.5062
33.6195
33.7451
33.8803
34.0229
34.171
34.3318
34.5164
34.719
34.934
35.154
35.3736
35.5902
35.8011
36.0043
36.1983
36.3822
36.5559
36.7197
36.8743
37.0206
37.1595
37.2918
37.4181
37.5391
37.6553
37.7671
37.8748
37.9786
38.0789
38.1759
38.2698
38.3609
38.4493
38.5352
38.6189
38.7006
38.7805
38.8587
38.9355
39.011
39.0853
39.1587
39.2313
39.3032
39.3747
39.4458
39.5167
39.5876
39.6587
39.7301
39.802
39.8747
39.9484
40.0234
40.0999
40.1784
40.2594
40.3434
40.4313
40.5238
40.6222
40.7282
40.8438
40.9718
41.1162
41.2825
41.4785
41.716
42.013
42.398
42.9188
43.6591
44.7773
46.5542
49.6672
55.2115
85.1481
66.3635
69.9432
77.3479
85.8491
94.7123
103.773
113.11
122.812
132.871
143.192
153.628
164.024
174.233
184.141
193.663
202.751
211.383
219.563
227.311
234.659
241.652
248.345
254.804
261.106
267.344
273.622
280.054
286.765
293.879
301.518
309.791
318.789
328.576
339.185
350.604
362.774
375.504
388.25
400.691
412.53
423.448
433.109
441.178
447.335
451.292
452.813
451.725
447.933
441.426
432.278
420.648
406.77
390.934
373.475
354.748
335.114
314.922
294.496
274.126
254.058
234.482
215.602
198.268
182.16
167.043
152.88
139.669
127.403
116.069
105.642
96.091
87.3781
79.4598
72.2897
65.8191
59.9983
54.7777
50.1086
45.9436
42.2375
38.9475
36.0333
33.4575
31.1853
29.1851
27.4276
25.8866
24.5379
23.36
22.3335
21.4409
20.6666
19.9966
19.4185
18.9213
18.4951
18.1312
17.8218
17.5603
17.3404
17.1569
17.0051
16.8808
16.7804
16.7007
16.6389
16.5925
16.5594
16.5379
16.5268
16.525
16.5312
16.5469
16.5724
16.605
16.642
16.6822
16.7246
16.7684
16.8129
16.8576
16.902
16.9459
16.9891
17.0315
17.073
17.1135
17.153
17.1916
17.2291
17.2656
17.301
17.3355
17.3691
17.4017
17.4334
17.4643
17.4945
17.5238
17.5525
17.5806
17.6081
17.6352
17.6617
17.6879
17.7137
17.7392
17.7645
17.7895
17.8145
17.8394
17.8642
17.8891
17.9141
17.9392
17.9646
17.9904
18.0165
18.0433
18.0708
18.0993
18.1289
18.1599
18.1928
18.228
18.2663
18.3084
18.3556
18.4096
18.4729
18.5489
18.6432
18.7644
18.9272
19.1568
19.5035
20.0604
21.0798
22.9893
109.903
85.29
86.9474
92.7852
99.8484
107.541
115.678
124.227
133.184
142.499
152.07
161.766
171.459
181.04
190.426
199.565
208.428
217.009
225.312
233.354
241.16
248.763
256.205
263.542
270.843
278.192
285.691
293.453
301.601
310.26
319.552
329.578
340.418
352.112
364.654
377.982
391.972
406.384
420.87
435.132
448.851
461.672
473.223
483.118
490.986
496.48
499.305
499.232
496.116
489.91
480.67
468.555
453.814
436.774
417.812
397.334
375.749
353.45
330.796
308.106
285.654
263.664
242.567
223.097
204.778
187.515
171.302
156.144
142.038
128.971
116.922
105.858
95.741
86.5264
78.1653
70.6061
63.7951
57.6781
52.2011
47.311
42.9565
39.0886
35.6606
32.6289
29.953
27.5953
25.5215
23.7001
22.1028
20.704
19.4806
18.4119
17.4796
16.6672
15.9602
15.3458
14.8125
14.3503
13.9504
13.6049
13.3071
13.0509
12.831
12.6429
12.4825
12.3463
12.2311
12.1342
12.0533
11.9862
11.9312
11.8868
11.8515
11.8243
11.8043
11.7913
11.7851
11.784
11.7869
11.7933
11.8025
11.814
11.8273
11.842
11.8578
11.8745
11.8917
11.9093
11.9271
11.945
11.9629
11.9808
11.9984
12.0158
12.0329
12.0498
12.0663
12.0825
12.0983
12.1139
12.1291
12.144
12.1587
12.1731
12.1872
12.2011
12.2149
12.2284
12.2418
12.2551
12.2683
12.2814
12.2945
12.3076
12.3206
12.3338
12.347
12.3603
12.3738
12.3875
12.4016
12.416
12.431
12.4466
12.463
12.4804
12.4991
12.5195
12.5421
12.5677
12.5973
12.6323
12.6751
12.7292
12.8004
12.8988
13.0429
13.2683
13.6568
14.3511
127.077
96.8125
96.6791
101.518
107.93
115.304
123.473
132.361
141.897
151.973
162.443
173.149
183.941
194.694
205.314
215.734
225.91
235.814
245.43
254.749
263.775
272.52
281.017
289.318
297.497
305.655
313.913
322.41
331.293
340.706
350.781
361.622
373.298
385.83
399.185
413.271
427.929
442.954
458.147
473.24
487.91
501.793
514.489
525.582
534.654
541.303
545.163
545.934
543.398
537.445
528.089
515.47
499.848
481.584
461.111
438.897
415.413
391.112
366.398
341.629
317.101
293.105
270.534
249.26
229.086
209.994
191.998
175.112
159.339
144.671
131.089
118.567
107.07
96.5569
86.9819
78.295
70.4431
63.3716
57.025
51.3477
46.2848
41.7832
37.7913
34.2606
31.1449
28.4013
25.9902
23.8748
22.022
20.4014
18.9858
17.7506
16.674
15.7366
14.921
14.212
13.5961
13.0616
12.5979
12.1961
11.8482
11.5473
11.2872
11.0628
10.8694
10.7031
10.5603
10.438
10.3336
10.2448
10.1695
10.106
10.0528
10.0085
9.97208
9.94252
9.91917
9.90172
9.889
9.88036
9.8752
9.87302
9.87334
9.87578
9.87999
9.88565
9.8925
9.90032
9.9089
9.91807
9.92768
9.93761
9.94775
9.95802
9.96833
9.97865
9.98891
9.99909
10.0092
10.0191
10.0289
10.0385
10.048
10.0574
10.0666
10.0757
10.0847
10.0935
10.1023
10.1109
10.1195
10.1281
10.1366
10.145
10.1535
10.162
10.1705
10.179
10.1877
10.1965
10.2054
10.2146
10.224
10.2337
10.2439
10.2547
10.2662
10.2786
10.2922
10.3074
10.3247
10.3451
10.3696
10.4001
10.4396
10.4931
10.5697
10.6857
10.874
11.1874
138.424
102.754
100.972
105.321
111.82
119.697
128.744
138.849
149.884
161.675
174.015
186.687
199.489
212.25
224.832
237.129
249.061
260.566
271.601
282.134
292.153
301.668
310.714
319.355
327.686
335.829
343.93
352.151
360.659
369.616
379.169
389.435
400.491
412.368
425.038
438.412
452.333
466.668
481.394
496.287
511.043
525.304
538.67
550.712
560.98
569.016
574.378
576.657
575.519
570.735
562.219
550.047
534.456
515.827
494.646
471.456
446.807
421.222
395.158
369.018
343.137
318.353
294.819
272.341
250.906
230.539
211.267
193.11
176.073
160.154
145.341
131.612
118.94
107.292
96.6273
86.903
78.0716
70.0826
62.8836
56.4208
50.64
45.4872
40.9094
36.8549
33.2745
30.1212
27.3509
24.9225
22.7981
20.9431
19.3258
17.9178
16.6934
15.6298
14.7067
13.9061
13.2121
12.6109
12.0902
11.6394
11.2493
10.9118
10.62
10.3677
10.1497
9.96156
9.79927
9.65946
9.53918
9.43589
9.34736
9.27169
9.2072
9.15244
9.10616
9.06727
9.03487
9.00831
8.98694
8.96998
8.95685
8.94702
8.94004
8.93551
8.93307
8.9324
8.93323
8.93532
8.93845
8.94244
8.94712
8.95237
8.95805
8.96406
8.97032
8.97675
8.98329
8.9899
8.99653
9.00316
9.00976
9.01632
9.02282
9.02925
9.03561
9.04191
9.04813
9.05429
9.06039
9.06644
9.07244
9.0784
9.08433
9.09024
9.09614
9.10204
9.10796
9.11391
9.11992
9.12599
9.13217
9.13847
9.14494
9.15162
9.15857
9.16586
9.1736
9.18191
9.19096
9.20101
9.21239
9.22559
9.24136
9.26082
9.28577
9.31917
9.36606
9.43536
9.54276
9.7107
145.419
105.062
101.799
105.96
112.98
121.855
132.29
144.12
157.154
171.148
185.817
200.866
216.021
231.042
245.734
259.942
273.546
286.451
298.589
309.912
320.401
330.061
338.929
347.076
354.608
361.661
368.399
375.008
381.686
388.631
396.035
404.061
412.838
422.445
432.899
444.15
456.072
468.619
481.907
495.745
509.847
523.882
537.486
550.259
561.768
571.537
579.057
583.8
585.262
583.024
576.81
566.552
552.403
534.725
514.05
491.002
466.228
440.349
413.866
387.271
361.506
336.714
312.825
289.867
267.889
246.933
227.029
208.196
190.441
173.766
158.161
143.613
130.103
117.605
106.089
95.5221
85.8651
77.0766
69.1119
61.9237
55.4629
49.6793
44.5221
39.9407
35.8855
32.3081
29.1622
26.4038
23.9916
21.8873
20.0554
18.4637
17.083
15.8869
14.852
13.9573
13.1844
12.517
11.9409
11.4437
11.0146
10.6443
10.3247
10.0488
9.81065
9.60509
9.42768
9.2746
9.14258
9.0288
8.93084
8.84661
8.77429
8.71233
8.65937
8.61425
8.57597
8.54368
8.51676
8.49448
8.47624
8.4615
8.4498
8.44072
8.43391
8.42905
8.42585
8.42408
8.42351
8.42395
8.42524
8.42723
8.42979
8.43282
8.43622
8.43991
8.44383
8.44791
8.45211
8.45639
8.46073
8.46509
8.46946
8.47383
8.47818
8.48252
8.48682
8.4911
8.49535
8.49957
8.50377
8.50795
8.51211
8.51626
8.52041
8.52456
8.52872
8.5329
8.53712
8.54139
8.54572
8.55013
8.55466
8.55932
8.56417
8.56923
8.57459
8.58033
8.58656
8.59344
8.6012
8.61018
8.62085
8.63398
8.65074
8.67304
8.70403
8.74905
8.81669
8.9176
149.174
105.169
100.615
104.711
112.402
122.45
134.453
148.178
163.365
179.689
196.777
214.245
231.733
248.928
265.574
281.465
296.443
310.383
323.191
334.802
345.174
354.297
362.193
368.924
374.593
379.347
383.379
386.919
390.232
393.601
397.311
401.626
406.775
412.921
420.158
428.489
437.83
448.185
459.618
471.897
484.742
497.87
511.009
523.88
536.169
547.49
557.348
565.137
570.172
571.767
569.354
562.598
551.462
536.222
517.415
495.752
471.978
446.892
420.969
395.608
370.73
346.476
322.968
300.297
278.528
257.707
237.859
219
201.137
184.27
168.394
153.501
139.577
126.607
114.571
103.444
93.2007
83.81
75.2381
67.4482
60.4006
54.0531
48.3617
43.2808
38.7644
34.7662
31.2408
28.1436
25.4322
23.0659
21.0068
19.2197
17.6722
16.3348
15.1809
14.1867
13.331
12.5951
11.9626
11.419
10.9518
10.5504
10.2052
9.90832
9.65285
9.4329
9.24344
9.08018
8.93946
8.81815
8.71358
8.62349
8.5459
8.47915
8.4218
8.3726
8.3305
8.29457
8.2641
8.23839
8.21684
8.19888
8.18407
8.17197
8.16222
8.15451
8.14856
8.14412
8.14096
8.1389
8.13777
8.13743
8.13774
8.13859
8.1399
8.14157
8.14353
8.14573
8.14812
8.15065
8.15329
8.15601
8.15879
8.16161
8.16445
8.16731
8.17018
8.17304
8.17591
8.17876
8.18162
8.18447
8.18731
8.19015
8.193
8.19585
8.19871
8.20159
8.20449
8.20743
8.21041
8.21346
8.21657
8.21978
8.22311
8.22659
8.23027
8.2342
8.23846
8.24317
8.24848
8.25463
8.26194
8.27096
8.28249
8.29786
8.31916
8.34983
8.39504
8.4604
150.47
103.975
98.33
102.37
110.687
121.851
135.354
150.888
168.121
186.644
205.991
225.686
245.283
264.396
282.709
299.971
315.986
330.596
343.675
355.121
364.856
372.829
379.031
383.5
386.337
387.717
387.896
387.205
386.042
384.847
384.072
384.139
385.4
388.112
392.41
398.304
405.688
414.472
424.358
434.987
446.059
457.372
468.815
480.346
491.926
503.434
514.572
524.798
533.321
539.181
541.416
539.288
532.431
520.903
505.163
486.007
464.214
441.103
417.491
393.764
370.246
347.185
324.753
303.063
282.184
262.156
243.002
224.73
207.345
190.845
175.225
160.48
146.602
133.58
121.404
110.059
99.5288
89.7953
80.8365
72.6279
65.1415
58.3467
52.2095
46.6935
41.7601
37.369
33.479
30.0485
27.0363
24.402
22.1069
20.1143
18.3897
16.9012
15.6197
14.5185
13.574
12.765
12.0726
11.4805
10.9742
10.5414
10.1712
9.85446
9.58325
9.35082
9.15145
8.98027
8.83317
8.70667
8.59779
8.50406
8.42334
8.35383
8.29399
8.24251
8.19828
8.16034
8.12788
8.10022
8.07674
8.05689
8.04019
8.02624
8.01466
8.00514
7.9974
7.9912
7.98631
7.98256
7.97978
7.97782
7.97655
7.97588
7.97569
7.97591
7.97647
7.9773
7.97836
7.97961
7.981
7.9825
7.9841
7.98576
7.98748
7.98924
7.99103
7.99284
7.99466
7.9965
7.99834
8.0002
8.00205
8.00391
8.00578
8.00766
8.00955
8.01145
8.01337
8.01532
8.0173
8.01931
8.02138
8.02351
8.02572
8.02804
8.03048
8.0331
8.03595
8.03909
8.04266
8.04681
8.05178
8.05797
8.06595
8.07669
8.09165
8.11316
8.14458
8.18917
149.863
102.044
95.5097
99.4448
108.232
120.306
135.076
152.162
171.162
191.587
212.884
234.49
255.88
276.601
296.282
314.63
331.408
346.421
359.498
370.484
379.244
385.671
389.707
391.369
390.776
388.174
383.947
378.616
372.809
367.216
362.516
359.303
358.024
358.931
362.071
367.306
374.351
382.784
391.825
400.97
409.892
418.458
426.734
434.966
443.507
452.68
462.612
473.065
483.353
492.367
498.741
501.237
499.025
491.8
479.801
463.932
445.518
425.326
404.108
382.457
360.813
339.485
318.673
298.502
279.042
260.33
242.381
225.2
208.786
193.133
178.237
164.09
150.688
138.024
126.092
114.884
104.393
94.6097
85.5235
77.1217
69.3888
62.3065
55.8533
50.0043
44.7315
40.0039
35.7881
32.0485
28.7486
25.851
23.3186
21.1153
19.206
17.5577
16.1395
14.9229
13.8819
12.9931
12.2355
11.5906
11.0421
10.5758
10.1794
9.8424
9.55562
9.3114
9.10318
8.92544
8.7735
8.64346
8.532
8.43636
8.35422
8.28361
8.22289
8.17066
8.12574
8.08714
8.054
8.02563
8.00139
7.98073
7.96318
7.94833
7.93582
7.92534
7.91663
7.90942
7.90353
7.89877
7.89497
7.89199
7.88972
7.88804
7.88687
7.88612
7.88573
7.88563
7.88578
7.88613
7.88664
7.88729
7.88805
7.88889
7.88981
7.89078
7.89179
7.89284
7.89391
7.89501
7.89612
7.89724
7.89838
7.89952
7.90068
7.90184
7.90302
7.9042
7.9054
7.90662
7.90786
7.90913
7.91043
7.91177
7.91317
7.91463
7.91618
7.91784
7.91966
7.92169
7.924
7.92673
7.93005
7.93426
7.93979
7.94735
7.95803
7.97347
7.996
8.02769
147.77
99.776
92.5556
96.3133
105.365
118.071
133.781
152.063
172.456
194.402
217.276
240.44
263.299
285.343
306.153
325.392
342.787
358.096
371.097
381.57
389.308
394.136
395.945
394.742
390.692
384.167
375.763
366.279
356.667
347.92
340.949
336.461
334.865
336.244
340.37
346.775
354.863
363.778
372.561
380.623
387.574
393.236
397.71
401.419
405.068
409.481
415.354
422.984
432.07
441.643
450.093
455.724
457.236
453.878
445.874
433.881
418.784
401.501
382.868
363.566
344.103
324.827
305.963
287.645
269.942
252.888
236.493
220.754
205.667
191.221
177.408
164.221
151.653
139.698
128.352
117.61
107.471
97.9304
88.9868
80.6363
72.8743
65.6941
59.0863
53.0385
47.5348
42.5558
38.0781
34.0756
30.519
27.3771
24.617
22.2055
20.1092
18.2956
16.7335
15.3933
14.2476
13.2713
12.4414
11.7377
11.142
10.6382
10.2126
9.85304
9.5493
9.29253
9.07525
8.89116
8.73495
8.60218
8.48913
8.3927
8.31031
8.23981
8.17941
8.12761
8.08316
8.04499
8.01223
7.98415
7.96009
7.93952
7.92197
7.90702
7.89434
7.88361
7.87457
7.867
7.86069
7.85546
7.85116
7.84766
7.84485
7.84262
7.84087
7.83955
7.83858
7.8379
7.83747
7.83724
7.83718
7.83727
7.83747
7.83776
7.83812
7.83855
7.83903
7.83955
7.8401
7.84067
7.84127
7.84188
7.84251
7.84314
7.84379
7.84445
7.84511
7.84579
7.84648
7.84717
7.84789
7.84862
7.84937
7.85014
7.85095
7.85181
7.85272
7.8537
7.85479
7.85602
7.85745
7.85917
7.86134
7.86416
7.86799
7.87336
7.88112
7.89248
7.90913
7.93252
144.523
97.5229
89.8397
93.3494
102.45
115.484
131.774
150.855
172.229
195.291
219.363
243.75
267.803
290.96
312.76
332.829
350.85
366.541
379.625
389.817
396.833
400.423
400.426
396.837
389.884
380.094
368.311
355.661
343.437
332.92
325.184
320.925
320.38
323.336
329.204
337.163
346.321
355.742
364.634
372.384
378.451
382.429
384.191
384.057
382.871
381.814
382.126
384.712
389.825
396.971
404.64
410.844
414.12
413.445
408.479
399.519
387.28
372.647
356.478
339.494
322.24
305.089
288.276
271.935
256.134
240.898
226.232
212.127
198.573
185.554
173.059
161.077
149.599
138.617
128.125
118.12
108.599
99.5632
91.0132
82.9514
75.3804
68.3026
61.7188
55.6277
50.0254
44.9041
40.2525
36.0549
32.2922
28.9414
25.9768
23.3703
21.0928
19.114
17.4043
15.9344
14.6767
13.6049
12.6951
11.9253
11.2757
10.7288
10.2691
9.88322
9.55946
9.28785
9.05989
8.8684
8.70733
8.57163
8.45708
8.3602
8.27807
8.20831
8.14893
8.0983
8.05507
8.0181
7.98647
7.9594
7.93625
7.91645
7.89953
7.8851
7.87281
7.86237
7.85353
7.84606
7.83977
7.8345
7.8301
7.82645
7.82344
7.82098
7.81897
7.81736
7.81608
7.81508
7.81431
7.81374
7.81333
7.81305
7.81289
7.81281
7.81281
7.81288
7.81299
7.81314
7.81332
7.81353
7.81376
7.81401
7.81428
7.81455
7.81483
7.81512
7.81542
7.81573
7.81605
7.81637
7.8167
7.81705
7.8174
7.81777
7.81817
7.81858
7.81903
7.81953
7.8201
7.82077
7.82157
7.8226
7.82395
7.82581
7.82846
7.83234
7.83809
7.84669
7.85939
7.8773
140.898
96.071
87.9201
91.0971
100.047
113.117
129.622
149.091
171.011
194.767
219.656
244.956
269.982
294.133
316.908
337.919
356.736
373.074
386.618
397.024
403.941
407.043
406.102
401.082
392.243
380.222
366.069
351.18
337.128
325.402
317.155
313.005
312.988
316.637
323.128
331.478
340.742
350.282
359.491
367.749
374.35
378.573
379.858
378.126
374.086
368.991
364.399
361.704
361.683
364.26
368.497
372.862
375.691
375.644
372.015
364.784
354.453
341.795
327.619
312.632
297.371
282.202
267.349
252.935
239.014
225.602
212.692
200.27
188.317
176.815
165.748
155.1
144.859
135.014
125.556
116.479
107.778
99.453
91.5051
83.9384
76.7592
69.9747
63.5929
57.621
52.0646
46.9269
42.2074
37.9021
34.0024
30.4955
27.3646
24.5894
22.1465
20.0108
18.1557
16.5541
15.1794
14.0057
13.0084
12.1648
11.454
10.8571
10.3572
9.93961
9.59128
9.30107
9.0594
8.85814
8.69042
8.55049
8.43357
8.33568
8.25354
8.18444
8.12618
8.07694
8.03522
7.9998
7.96969
7.94405
7.92221
7.90359
7.88772
7.87419
7.86268
7.85288
7.84455
7.83749
7.83152
7.82647
7.82222
7.81865
7.81565
7.81315
7.81107
7.80933
7.8079
7.80672
7.80575
7.80495
7.80431
7.80378
7.80335
7.80301
7.80274
7.80252
7.80235
7.80222
7.80211
7.80203
7.80197
7.80193
7.8019
7.80189
7.80188
7.80188
7.80189
7.8019
7.80193
7.80195
7.80199
7.80203
7.80208
7.80214
7.80221
7.8023
7.8024
7.80254
7.80272
7.80297
7.80333
7.80384
7.80461
7.80579
7.80761
7.81044
7.8148
7.82149
7.8315
7.84573
137.359
95.7633
87.2825
90.1293
98.835
111.76
128.227
147.774
169.899
194
219.382
245.318
271.107
296.122
319.829
341.786
361.597
378.915
393.387
404.631
412.244
415.843
415.133
410.017
400.714
387.866
372.579
356.357
340.901
327.809
318.273
312.872
311.557
313.789
318.778
325.755
334.135
343.222
352.48
361.328
369.008
374.606
377.228
376.327
372.048
365.355
357.811
351.067
346.338
344.074
343.885
344.685
345.034
343.585
339.471
332.454
322.839
311.251
298.398
284.916
271.284
257.825
244.724
232.074
219.905
208.213
196.981
186.183
175.796
165.795
156.161
146.875
137.92
129.282
120.948
112.907
105.152
97.677
90.4821
83.5695
76.945
70.6175
64.5981
58.8987
53.5318
48.5084
43.8375
39.5249
35.5726
31.9781
28.7344
25.8304
23.2504
20.976
18.9858
17.2566
15.7645
14.4851
13.3946
12.4704
11.691
11.0368
10.4898
10.034
9.65539
9.34159
9.08194
8.86734
8.69003
8.54352
8.42235
8.32202
8.23878
8.16957
8.11188
8.06366
8.02325
7.98928
7.96066
7.9365
7.91606
7.89874
7.88405
7.87157
7.86096
7.85194
7.84427
7.83774
7.83219
7.82746
7.82344
7.82001
7.8171
7.81461
7.81249
7.81067
7.80911
7.80777
7.80661
7.8056
7.80472
7.80394
7.80325
7.80264
7.80208
7.80158
7.80111
7.80069
7.80029
7.79991
7.79955
7.79922
7.79889
7.79858
7.79828
7.798
7.79772
7.79745
7.79719
7.79693
7.79669
7.79645
7.79622
7.796
7.79578
7.79558
7.79539
7.79522
7.79508
7.79498
7.79497
7.79509
7.79541
7.79608
7.79728
7.79934
7.80271
7.80804
7.81617
7.82784
134.283
96.9719
88.3301
90.8435
99.2392
111.892
128.138
147.535
169.619
193.823
219.488
245.91
272.39
298.286
323.04
346.172
367.266
385.941
401.816
414.487
423.53
428.527
429.143
425.219
416.901
404.745
389.764
373.371
357.188
342.756
331.247
323.275
318.897
317.764
319.397
323.539
329.815
337.492
346.042
354.926
363.395
370.425
374.835
375.627
372.439
365.828
357.145
348.025
339.839
333.369
328.698
325.239
321.946
317.694
311.668
303.57
293.589
282.218
270.038
257.57
245.197
233.157
221.574
210.489
199.898
189.775
180.083
170.79
161.864
153.279
145.01
137.036
129.339
121.9
114.703
107.732
100.974
94.4218
88.0684
81.9127
75.9578
70.2107
64.6822
59.3858
54.3367
49.5511
45.0442
40.8295
36.9176
33.3155
30.0256
27.0459
24.3699
21.9866
19.8816
18.0371
16.4335
15.0496
13.8637
12.8541
12
11.2815
10.6803
10.1795
9.76411
9.42081
9.13793
8.90539
8.71458
8.55816
8.43
8.32496
8.23879
8.168
8.10973
8.06163
8.02182
7.98876
7.96124
7.93824
7.91898
7.90279
7.88915
7.87761
7.86782
7.8595
7.8524
7.84633
7.84113
7.83664
7.83277
7.82942
7.82649
7.82393
7.82167
7.81967
7.81789
7.81628
7.81483
7.8135
7.81228
7.81115
7.81009
7.8091
7.80816
7.80727
7.80642
7.8056
7.80481
7.80405
7.80331
7.8026
7.80191
7.80123
7.80058
7.79994
7.79931
7.7987
7.79811
7.79753
7.79697
7.79641
7.79587
7.79534
7.79482
7.79431
7.79382
7.79334
7.79289
7.79248
7.79213
7.79189
7.79183
7.79207
7.79278
7.79424
7.79686
7.80118
7.80794
7.81776
132.176
100.387
91.7874
93.8911
101.862
114.121
130.013
149.123
171.033
195.238
221.136
248.064
275.342
302.32
328.409
353.092
375.912
396.451
414.305
429.061
440.29
447.572
450.552
449.019
443.02
432.953
419.619
404.187
388.046
372.577
358.917
347.797
339.516
334.057
331.343
331.631
334.594
339.707
346.505
354.45
362.76
370.314
375.725
377.681
375.445
369.224
360.068
349.4
338.528
328.403
319.478
311.614
304.185
296.381
287.584
277.565
266.486
254.744
242.788
230.995
219.617
208.783
198.531
188.841
179.668
170.959
162.663
154.737
147.144
139.857
132.849
126.099
119.587
113.291
107.193
101.273
95.5148
89.9044
84.4308
79.0877
73.8733
68.7908
63.848
59.057
54.433
49.9935
45.7572
41.7424
37.9657
34.4414
31.1802
28.1884
25.4681
23.0166
20.827
18.8883
17.1864
15.7048
14.4252
13.3285
12.3952
11.6064
10.9439
10.3907
9.93119
9.55144
9.23892
8.9827
8.77329
8.60258
8.46368
8.35078
8.25907
8.18455
8.12393
8.07453
8.03419
8.00114
7.97397
7.95155
7.93298
7.91752
7.90457
7.89368
7.88445
7.87658
7.86984
7.86401
7.85894
7.8545
7.85057
7.84708
7.84394
7.8411
7.8385
7.83611
7.83389
7.83182
7.82986
7.82801
7.82625
7.82457
7.82295
7.8214
7.81989
7.81843
7.81702
7.81564
7.81431
7.813
7.81174
7.81051
7.8093
7.80814
7.807
7.80589
7.80481
7.80376
7.80274
7.80175
7.80078
7.79984
7.79892
7.79802
7.79714
7.79628
7.79544
7.79462
7.79383
7.79308
7.7924
7.79181
7.79139
7.79123
7.79152
7.79248
7.7945
7.79804
7.80375
7.81221
132.009
106.113
97.8395
99.4519
106.878
118.671
134.186
153.026
174.815
199.106
225.357
252.949
281.221
309.515
337.211
363.742
388.6
411.325
431.483
448.652
462.412
472.357
478.135
479.51
476.448
469.195
458.325
444.735
429.542
413.935
398.992
385.543
374.127
365.057
358.607
355.234
354.65
356.645
360.894
366.884
373.788
380.391
385.178
386.679
383.987
377.084
366.71
353.954
339.974
325.858
312.391
299.821
287.887
276.106
264.112
251.819
239.402
227.162
215.391
204.286
193.935
184.332
175.418
167.108
159.315
151.963
144.989
138.345
131.996
125.913
120.075
114.46
109.049
103.823
98.7603
93.8414
89.0464
84.3571
79.7586
75.2393
70.7926
66.4169
62.1158
57.8979
53.7763
49.7675
45.8906
42.1658
38.6133
35.2521
32.0987
29.1663
26.4641
23.997
21.7657
19.7661
17.9907
16.4283
15.0655
13.8867
12.8752
12.0139
11.2858
10.6746
10.1647
9.74193
9.39326
9.10715
8.87344
8.68327
8.52906
8.40435
8.30369
8.22255
8.15718
8.10449
8.06197
8.02756
7.99963
7.97687
7.95822
7.94284
7.93006
7.91934
7.91027
7.90251
7.8958
7.88993
7.88473
7.88006
7.87584
7.87196
7.86837
7.86501
7.86185
7.85884
7.85596
7.8532
7.85053
7.84795
7.84543
7.84299
7.84061
7.83829
7.83602
7.83381
7.83165
7.82954
7.82749
7.82549
7.82353
7.82163
7.81978
7.81799
7.81624
7.81455
7.8129
7.8113
7.80976
7.80826
7.8068
7.80539
7.80401
7.80268
7.80139
7.80012
7.7989
7.7977
7.79655
7.79544
7.7944
7.79347
7.7927
7.79219
7.79209
7.79264
7.79416
7.79709
7.802
7.80941
134.169
113.746
106.226
107.34
114.146
125.471
140.703
159.448
181.348
205.994
232.882
261.422
290.965
320.837
350.381
378.979
406.063
431.122
453.686
473.318
489.603
502.156
510.645
514.832
514.639
510.205
501.932
490.49
476.765
461.76
446.47
431.775
418.386
406.866
397.766
391.657
388.261
387.541
389.241
392.834
397.429
401.738
404.198
403.36
398.341
389.017
375.834
359.609
341.512
322.892
304.831
287.809
271.781
256.495
241.784
227.675
214.326
201.92
190.569
180.289
171.005
162.595
154.917
147.839
141.247
135.053
129.192
123.617
118.296
113.206
108.327
103.645
99.1426
94.8012
90.6019
86.524
82.5463
78.6486
74.8124
71.0225
67.2678
63.5421
59.8447
56.1801
52.5579
48.9922
45.5007
42.1033
38.8211
35.6751
32.6851
29.8686
27.2398
24.8093
22.5836
20.5648
18.7512
17.1371
15.7137
14.4697
13.3918
12.4657
11.6762
11.0082
10.4472
9.97911
9.59107
9.27131
9.00927
8.79561
8.6222
8.48203
8.36913
8.27843
8.20574
8.14753
8.10094
8.06361
8.03362
8.00943
7.98981
7.9738
7.96061
7.94962