/*--------------------------------*- C++ -*----------------------------------*\
  =========                 |
  \\      /  F ield         | OpenFOAM: The Open Source CFD Toolbox
   \\    /   O peration     | Website:  https://openfoam.org
    \\  /    A nd           | Version:  9
     \\/     M anipulation  |
\*---------------------------------------------------------------------------*/
FoamFile
{
    format      ascii;
    class       volScalarField;
    location    "0.01";
    object      k;
}
// * * * * * * * * * * * * * * * * * * * * * * * * * * * * * * * * * * * * * //

dimensions      [0 2 -2 0 0 0 0];

internalField   nonuniform List<scalar> 
12225
(
0.353518
0.334012
0.315481
0.299216
0.286259
0.27701
0.271427
0.269189
0.269821
0.272792
0.27758
0.283708
0.290768
0.298421
0.306405
0.314513
0.322688
0.335024
0.434421
0.444214
0.433119
0.428598
0.434925
0.450285
0.471966
0.49751
0.524933
0.552759
0.579973
0.605926
0.630253
0.652792
0.673581
0.692659
0.710915
0.727327
0.395004
0.409931
0.408986
0.403831
0.400058
0.399034
0.400825
0.405128
0.411509
0.419505
0.42868
0.438653
0.449116
0.459827
0.470629
0.48142
0.49231
0.503126
0.379552
0.384553
0.386029
0.385018
0.383067
0.381123
0.379639
0.378812
0.378698
0.379269
0.38046
0.382188
0.38437
0.386933
0.389822
0.393001
0.39648
0.400216
0.374949
0.375805
0.376052
0.37544
0.374208
0.372659
0.371029
0.369474
0.368088
0.366918
0.365983
0.36528
0.364801
0.364531
0.364458
0.364575
0.364885
0.365375
0.37348
0.372523
0.371691
0.370694
0.369474
0.368078
0.366579
0.365045
0.363529
0.362071
0.360696
0.359418
0.358245
0.357179
0.356222
0.355375
0.354642
0.354026
0.37301
0.371286
0.369788
0.368372
0.366959
0.365522
0.36406
0.362585
0.361115
0.359669
0.358261
0.356901
0.355598
0.354357
0.353181
0.352075
0.351043
0.350093
0.372864
0.370835
0.368996
0.367294
0.365685
0.364138
0.362632
0.361158
0.359715
0.358304
0.35693
0.355596
0.354305
0.35306
0.351864
0.35072
0.349631
0.348611
0.37282
0.37068
0.368689
0.366831
0.365086
0.363435
0.361862
0.360353
0.3589
0.357498
0.356145
0.354837
0.353576
0.35236
0.35119
0.350066
0.348993
0.347982
0.372806
0.370628
0.368577
0.366646
0.364826
0.363107
0.361477
0.359927
0.358449
0.357036
0.355682
0.354384
0.353139
0.351944
0.350798
0.3497
0.348653
0.347668
0.372801
0.370609
0.368536
0.366576
0.36472
0.362964
0.361299
0.359719
0.358217
0.356787
0.355423
0.354122
0.35288
0.351693
0.350559
0.349478
0.348449
0.347484
0.372799
0.370603
0.368522
0.36655
0.364681
0.362908
0.361227
0.359631
0.358114
0.356671
0.355299
0.353991
0.352746
0.351559
0.350429
0.349354
0.348333
0.347378
0.372797
0.370599
0.368514
0.366537
0.364661
0.362881
0.361191
0.359586
0.358061
0.35661
0.355231
0.353918
0.352669
0.35148
0.35035
0.349276
0.348259
0.347309
0.372796
0.370596
0.368509
0.366529
0.36465
0.362866
0.361171
0.359561
0.358031
0.356575
0.355191
0.353875
0.352622
0.351432
0.350301
0.349227
0.34821
0.347261
0.372795
0.370594
0.368505
0.366523
0.364642
0.362855
0.361158
0.359545
0.358012
0.356554
0.355168
0.353849
0.352595
0.351403
0.350271
0.349196
0.348179
0.347229
0.372795
0.370592
0.368502
0.366518
0.364636
0.362848
0.361149
0.359534
0.357999
0.35654
0.355151
0.353831
0.352576
0.351383
0.350249
0.349173
0.348154
0.347202
0.372794
0.37059
0.3685
0.366515
0.364631
0.362842
0.361141
0.359525
0.357989
0.356528
0.355138
0.353816
0.352559
0.351364
0.350228
0.34915
0.348127
0.34717
0.372794
0.37059
0.368498
0.366513
0.364628
0.362837
0.361136
0.359519
0.357981
0.356518
0.355126
0.353802
0.352542
0.351344
0.350204
0.34912
0.348092
0.347128
0.372793
0.370589
0.368498
0.366512
0.364627
0.362836
0.361133
0.359515
0.357975
0.35651
0.355116
0.353788
0.352525
0.351322
0.350176
0.349086
0.348049
0.347077
0.372794
0.37059
0.368499
0.366513
0.364628
0.362837
0.361134
0.359515
0.357974
0.356508
0.355111
0.353781
0.352514
0.351307
0.350156
0.34906
0.348017
0.347036
0.372794
0.370591
0.3685
0.366516
0.364632
0.362841
0.361139
0.35952
0.35798
0.356513
0.355116
0.353785
0.352516
0.351307
0.350154
0.349054
0.348007
0.347023
0.372795
0.370593
0.368504
0.366522
0.364641
0.362854
0.361156
0.359541
0.358005
0.356542
0.355149
0.353821
0.352555
0.351348
0.350196
0.349097
0.348049
0.347062
0.372796
0.370599
0.368518
0.366547
0.36468
0.362909
0.361229
0.359632
0.358113
0.356666
0.355286
0.353969
0.352711
0.351509
0.350359
0.34926
0.34821
0.347219
0.372804
0.37063
0.36859
0.366673
0.364865
0.363155
0.361531
0.359981
0.358499
0.357079
0.355715
0.354404
0.353145
0.351934
0.350771
0.349653
0.348582
0.347568
0.372855
0.370815
0.368965
0.367248
0.365617
0.364043
0.362509
0.361009
0.359541
0.358107
0.356711
0.355356
0.354046
0.352783
0.351569
0.350406
0.349295
0.348248
0.373162
0.371752
0.37054
0.369302
0.367943
0.366459
0.364891
0.36328
0.361668
0.360085
0.358553
0.357088
0.355701
0.354396
0.353178
0.352046
0.351001
0.350049
0.374774
0.375753
0.375997
0.375107
0.373442
0.371415
0.369287
0.36721
0.365274
0.363529
0.361999
0.360692
0.359605
0.358728
0.358049
0.357551
0.357219
0.357039
0.382646
0.391181
0.391424
0.38762
0.38313
0.379162
0.376058
0.373883
0.372596
0.372119
0.372356
0.373211
0.37459
0.376409
0.37859
0.381066
0.383779
0.386658
0.406162
0.411732
0.402364
0.393122
0.388012
0.387102
0.389621
0.394745
0.401752
0.410063
0.419236
0.428941
0.438931
0.449022
0.459083
0.469024
0.478801
0.488324
0.360352
0.347005
0.33411
0.321905
0.310837
0.301166
0.292985
0.286282
0.280971
0.276933
0.274029
0.27212
0.271073
0.270764
0.27108
0.271922
0.273203
0.274842
0.0877645
0.128059
0.141781
0.142823
0.145498
0.158933
0.173835
0.189915
0.207804
0.228032
0.25092
0.276624
0.305181
0.336532
0.370535
0.406964
0.44553
0.485885
0.527648
0.570419
0.613804
0.657423
0.700928
0.74401
0.786401
0.827873
0.868241
0.907359
0.945116
0.981431
1.01626
1.04958
1.0814
1.11178
1.14081
1.16863
1.19548
1.22168
1.2454
1.2658
1.28268
1.2958
1.3049
1.30974
1.3101
1.30581
1.29676
1.28289
1.26426
1.24098
1.21326
1.18139
1.14574
1.10675
1.0649
1.02074
0.974852
0.927847
0.880405
0.833323
0.787612
0.744454
0.705429
0.672656
0.643117
0.614824
0.587598
0.561491
0.53659
0.512978
0.490724
0.46988
0.450481
0.432548
0.416086
0.401088
0.387534
0.375396
0.364634
0.355199
0.347036
0.34008
0.334263
0.329508
0.325737
0.322866
0.320812
0.319489
0.318813
0.318702
0.319078
0.319866
0.320996
0.322404
0.324031
0.325826
0.32774
0.329735
0.331775
0.33383
0.335875
0.33789
0.339859
0.341768
0.343608
0.345372
0.347054
0.348653
0.350168
0.351591
0.352906
0.354117
0.355224
0.356231
0.357139
0.357952
0.358674
0.35931
0.359868
0.360355
0.360777
0.361144
0.361461
0.361737
0.361976
0.362184
0.362366
0.362525
0.362664
0.362786
0.362894
0.362988
0.363071
0.363144
0.363208
0.363264
0.363313
0.363356
0.363393
0.363424
0.363451
0.363474
0.363493
0.363509
0.363521
0.363531
0.363538
0.363543
0.363546
0.363547
0.363546
0.363543
0.363539
0.363532
0.363524
0.363513
0.3635
0.363483
0.363463
0.363438
0.363406
0.363367
0.363318
0.363257
0.36318
0.363083
0.362959
0.3628
0.362597
0.362335
0.361995
0.36155
0.360962
0.360177
0.359111
0.357632
0.355543
0.352406
0.347889
0.339149
0.175023
0.27084
0.335862
0.388702
0.433786
0.47437
0.511899
0.548601
0.585949
0.62456
0.664434
0.705244
0.746553
0.787955
0.829157
0.870013
0.910522
0.950812
0.991105
1.03169
1.07287
1.11497
1.15829
1.20308
1.24956
1.29787
1.34812
1.40034
1.45451
1.51058
1.56841
1.62782
1.68858
1.75039
1.8129
1.87569
1.93828
1.99979
2.05947
2.11706
2.1717
2.22239
2.2681
2.30777
2.34039
2.36502
2.38087
2.38727
2.38377
2.37012
2.34632
2.31259
2.26938
2.21734
2.15728
2.09017
2.01705
1.93901
1.85716
1.77259
1.6863
1.59911
1.51185
1.42855
1.34923
1.27247
1.19828
1.12688
1.05848
0.993273
0.931391
0.872914
0.817873
0.76626
0.718029
0.673107
0.631393
0.592772
0.557109
0.524263
0.494086
0.466426
0.441129
0.418045
0.397024
0.377922
0.3606
0.344924
0.330764
0.318
0.306515
0.296201
0.286956
0.278683
0.271293
0.264702
0.258834
0.253616
0.248984
0.244878
0.241242
0.238027
0.235187
0.232681
0.230473
0.228527
0.226816
0.225312
0.223992
0.222843
0.221857
0.22101
0.220282
0.219659
0.219129
0.218679
0.218298
0.217978
0.217711
0.217489
0.217306
0.217157
0.217037
0.216943
0.216869
0.216813
0.216771
0.216739
0.216717
0.216701
0.216688
0.216679
0.216671
0.216663
0.216654
0.216645
0.216633
0.21662
0.216604
0.216586
0.216566
0.216543
0.216518
0.21649
0.21646
0.216428
0.216394
0.216358
0.21632
0.21628
0.216239
0.216197
0.216153
0.216108
0.216063
0.216017
0.215971
0.215925
0.215879
0.215835
0.215792
0.215751
0.215713
0.215679
0.215651
0.21563
0.215619
0.215621
0.215641
0.215685
0.215763
0.21589
0.216087
0.216392
0.216867
0.217628
0.218882
0.221128
0.225014
0.234549
0.304889
0.440235
0.52488
0.587126
0.63808
0.682811
0.723993
0.763848
0.804005
0.845315
0.888026
0.93205
0.977177
1.02322
1.07008
1.11773
1.16626
1.21576
1.26635
1.3181
1.37106
1.42523
1.48057
1.53703
1.59454
1.65308
1.71264
1.77327
1.83507
1.89815
1.96266
2.0287
2.09636
2.16562
2.23639
2.30844
2.38138
2.45436
2.52689
2.59807
2.66681
2.73182
2.79178
2.84528
2.89098
2.92759
2.95393
2.96903
2.97214
2.96276
2.94069
2.90603
2.8592
2.80086
2.73192
2.65349
2.5668
2.47314
2.37383
2.27018
2.1634
2.05457
1.94493
1.83957
1.73781
1.63887
1.54289
1.45021
1.36115
1.276
1.19495
1.11814
1.04567
0.977534
0.913717
0.854144
0.798706
0.747265
0.69966
0.655713
0.615237
0.578035
0.543912
0.512669
0.484114
0.458058
0.434321
0.412729
0.393117
0.375329
0.359218
0.344645
0.331479
0.319599
0.308893
0.299254
0.290585
0.282795
0.275801
0.269527
0.263902
0.258863
0.25435
0.25031
0.246695
0.243461
0.240568
0.237981
0.235668
0.233599
0.231747
0.230089
0.2286
0.227261
0.226052
0.22496
0.223975
0.223084
0.222278
0.221547
0.220884
0.220282
0.219734
0.219236
0.218781
0.218366
0.217987
0.217639
0.217318
0.217023
0.216749
0.216496
0.216259
0.216038
0.215831
0.215636
0.215451
0.215277
0.215111
0.214953
0.214802
0.214657
0.214517
0.214383
0.214253
0.214126
0.214003
0.213883
0.213766
0.213651
0.213538
0.213427
0.213317
0.213208
0.2131
0.212993
0.212886
0.21278
0.212673
0.212566
0.212459
0.212351
0.212241
0.21213
0.212017
0.211901
0.211782
0.211659
0.211531
0.211397
0.211255
0.211104
0.210942
0.210769
0.210587
0.210404
0.210236
0.210185
0.210306
0.211656
0.394314
0.560386
0.662454
0.733789
0.78955
0.837917
0.883204
0.928021
0.973986
1.02191
1.07199
1.1241
1.17796
1.23328
1.28984
1.34746
1.40598
1.46527
1.52517
1.5855
1.64604
1.70661
1.767
1.82709
1.88682
1.94624
2.00551
2.06491
2.12482
2.18567
2.24792
2.31199
2.37821
2.44677
2.51765
2.59059
2.66506
2.7403
2.8159
2.89094
2.96427
3.03459
3.10047
3.16042
3.21292
3.25652
3.28983
3.3116
3.32082
3.31673
3.29887
3.26713
3.22175
3.1633
3.09264
3.01088
2.91928
2.8192
2.71205
2.59922
2.48202
2.36169
2.24064
2.12353
2.00882
1.89649
1.78695
1.68066
1.57806
1.47955
1.3854
1.29586
1.21108
1.13113
1.05606
0.985823
0.920341
0.859494
0.803124
0.751049
0.703064
0.658952
0.618489
0.581446
0.547596
0.516717
0.488593
0.463016
0.43979
0.418726
0.399649
0.382394
0.366806
0.35274
0.340062
0.328649
0.318384
0.309161
0.300881
0.293455
0.2868
0.280839
0.275503
0.27073
0.266461
0.262646
0.259236
0.25619
0.253469
0.251039
0.248867
0.246928
0.245194
0.243643
0.242253
0.241005
0.239879
0.238867
0.237955
0.237131
0.236386
0.23571
0.235095
0.234535
0.234024
0.233555
0.233125
0.232729
0.232364
0.232026
0.231712
0.23142
0.231148
0.230894
0.230656
0.230432
0.230221
0.230022
0.229834
0.229655
0.229485
0.229323
0.229168
0.229018
0.228875
0.228737
0.228603
0.228473
0.228346
0.228223
0.228103
0.227984
0.227868
0.227753
0.22764
0.227528
0.227417
0.227306
0.227195
0.227084
0.226973
0.226861
0.226747
0.226632
0.226515
0.226394
0.22627
0.226141
0.226006
0.225863
0.225711
0.225546
0.225366
0.225167
0.224945
0.224697
0.22442
0.224134
0.223805
0.223638
0.455878
0.637749
0.752482
0.833024
0.895923
0.950896
1.00337
1.05638
1.11154
1.16947
1.23014
1.29316
1.35801
1.42414
1.49107
1.55837
1.62562
1.69247
1.75852
1.82343
1.88685
1.94853
2.00827
2.06606
2.12199
2.17636
2.22962
2.28233
2.33517
2.38884
2.44399
2.50119
2.56084
2.62314
2.68803
2.7552
2.82406
2.89411
2.96543
3.03733
3.10879
3.17858
3.24537
3.30769
3.36399
3.41272
3.45233
3.48133
3.49837
3.50235
3.49245
3.4682
3.42956
3.37685
3.31079
3.23239
3.14288
3.04364
2.93608
2.82164
2.70169
2.57772
2.45453
2.33268
2.2119
2.0926
1.97539
1.86088
1.74962
1.64209
1.53872
1.43985
1.34573
1.25657
1.17248
1.0935
1.01965
0.950839
0.886967
0.827877
0.773379
0.723261
0.67729
0.635222
0.596809
0.561802
0.529955
0.501031
0.474801
0.451048
0.429568
0.410167
0.392666
0.376899
0.362709
0.349953
0.338498
0.328223
0.319014
0.310769
0.303392
0.296798
0.290908
0.28565
0.280959
0.276776
0.273047
0.269726
0.266767
0.264133
0.261787
0.259699
0.257841
0.256186
0.254711
0.253397
0.252223
0.25117
0.250228
0.249384
0.248626
0.247944
0.247329
0.246772
0.246268
0.245808
0.24539
0.245006
0.244655
0.244331
0.244032
0.243755
0.243499
0.24326
0.243036
0.242827
0.242631
0.242447
0.242273
0.242108
0.241952
0.241803
0.241661
0.241526
0.241395
0.24127
0.241148
0.241031
0.240917
0.240805
0.240697
0.24059
0.240486
0.240383
0.240281
0.240181
0.240081
0.239981
0.239882
0.239783
0.239683
0.239582
0.239481
0.239378
0.239272
0.239165
0.239053
0.238938
0.238817
0.23869
0.238554
0.238408
0.238249
0.238075
0.237882
0.23767
0.23744
0.237204
0.236954
0.236783
0.495861
0.681744
0.804415
0.893628
0.965452
1.02967
1.09203
1.15575
1.22234
1.29219
1.36498
1.43998
1.51633
1.59318
1.66972
1.74526
1.81916
1.89084
1.95978
2.02553
2.08775
2.14621
2.20086
2.25184
2.29946
2.34426
2.3869
2.42821
2.46904
2.51025
2.55267
2.59697
2.64365
2.69303
2.74512
2.79974
2.85638
2.91493
2.97614
3.0396
3.10448
3.16975
3.23422
3.29656
3.35535
3.40901
3.45588
3.49424
3.52236
3.53865
3.54177
3.53075
3.50504
3.46461
3.4099
3.34175
3.26128
3.16984
3.06883
2.95969
2.84385
2.72525
2.60568
2.48514
2.36417
2.24347
2.12377
2.00579
1.89016
1.77749
1.6683
1.56307
1.46217
1.36592
1.27459
1.18832
1.10724
1.03138
0.960698
0.895121
0.834513
0.778696
0.727461
0.680574
0.637781
0.598821
0.563429
0.531341
0.502301
0.476062
0.452389
0.43106
0.411867
0.394618
0.379133
0.365248
0.35281
0.34168
0.331729
0.322841
0.31491
0.307838
0.301537
0.295926
0.290934
0.286494
0.282548
0.279043
0.27593
0.273167
0.270716
0.268541
0.266612
0.264901
0.263383
0.262037
0.260842
0.25978
0.258833
0.25799
0.257239
0.256567
0.255966
0.255427
0.254943
0.254506
0.254111
0.253752
0.253426
0.253129
0.252856
0.252606
0.252375
0.252162
0.251964
0.25178
0.251608
0.251447
0.251296
0.251154
0.251019
0.250892
0.25077
0.250654
0.250544
0.250437
0.250334
0.250235
0.250138
0.250044
0.249953
0.249863
0.249775
0.249688
0.249602
0.249517
0.249433
0.249349
0.249265
0.249181
0.249097
0.249012
0.248926
0.248839
0.24875
0.248659
0.248565
0.248468
0.248366
0.248259
0.248145
0.248023
0.247892
0.24775
0.247596
0.247433
0.247265
0.247108
0.246974
0.246939
0.519739
0.702398
0.829097
0.925644
1.00673
1.08132
1.1549
1.2305
1.30944
1.39182
1.47695
1.56374
1.65097
1.73744
1.82205
1.90386
1.98204
2.05586
2.12473
2.18818
2.24587
2.29765
2.34359
2.38393
2.41916
2.44996
2.47718
2.50183
2.52498
2.54771
2.5711
2.59609
2.62345
2.65376
2.68732
2.72416
2.76403
2.8072
2.85481
2.90656
2.96176
3.01956
3.07905
3.13923
3.19894
3.25686
3.31138
3.36064
3.40257
3.43503
3.45595
3.46365
3.45689
3.43507
3.39819
3.34682
3.28195
3.20482
3.11678
3.01934
2.91617
2.80891
2.6981
2.58451
2.46894
2.3522
2.23511
2.11842
2.00286
1.8891
1.77777
1.66944
1.56462
1.46376
1.36725
1.27539
1.18843
1.10652
1.02978
0.958217
0.891801
0.830434
0.773969
0.722215
0.674948
0.631919
0.592861
0.557501
0.525562
0.496774
0.470872
0.447605
0.426737
0.408044
0.39132
0.376376
0.363035
0.351138
0.340539
0.331103
0.32271
0.315252
0.308627
0.302748
0.297533
0.29291
0.288814
0.285187
0.281976
0.279136
0.276623
0.274401
0.272438
0.270703
0.26917
0.267815
0.266619
0.265561
0.264624
0.263794
0.263059
0.262406
0.261826
0.26131
0.260849
0.260438
0.260069
0.259738
0.25944
0.25917
0.258925
0.258702
0.258499
0.258313
0.258142
0.257983
0.257837
0.257701
0.257574
0.257455
0.257343
0.257238
0.257138
0.257043
0.256952
0.256865
0.256782
0.256701
0.256623
0.256547
0.256472
0.2564
0.256329
0.256259
0.256189
0.256121
0.256053
0.255985
0.255917
0.255849
0.255781
0.255713
0.255643
0.255572
0.2555
0.255427
0.255351
0.255272
0.255189
0.255103
0.255012
0.254915
0.254811
0.254702
0.254587
0.25447
0.254361
0.254277
0.254242
0.254318
0.531733
0.707407
0.835203
0.937319
1.02681
1.11153
1.19628
1.2837
1.37477
1.46921
1.56596
1.66353
1.76034
1.85487
1.94578
2.03191
2.11226
2.18603
2.25253
2.31127
2.36191
2.40429
2.43849
2.46482
2.48383
2.49635
2.50344
2.50637
2.50657
2.50556
2.50487
2.50594
2.51003
2.51812
2.53089
2.54865
2.57138
2.59952
2.63359
2.67301
2.71699
2.76489
2.81619
2.87048
2.92732
2.98603
3.04552
3.10413
3.15965
3.2094
3.25054
3.28041
3.29684
3.29837
3.28439
3.25502
3.211
3.15357
3.08385
3.00582
2.92035
2.82855
2.7314
2.62983
2.52472
2.41691
2.30723
2.19647
2.08539
1.97472
1.86515
1.75734
1.6519
1.54939
1.45031
1.35509
1.26413
1.17772
1.0961
1.01943
0.947818
0.881272
0.81975
0.763148
0.711311
0.664037
0.621092
0.582217
0.547137
0.515571
0.487237
0.461861
0.439176
0.418932
0.400893
0.38484
0.370572
0.357903
0.346664
0.336704
0.327884
0.320078
0.313175
0.307073
0.301682
0.296922
0.292721
0.289015
0.285745
0.282863
0.280323
0.278085
0.276114
0.274378
0.27285
0.271505
0.270322
0.26928
0.268363
0.267555
0.266842
0.266213
0.265658
0.265167
0.264733
0.264348
0.264007
0.263702
0.263431
0.263188
0.26297
0.262774
0.262597
0.262436
0.26229
0.262156
0.262033
0.26192
0.261816
0.261719
0.261628
0.261543
0.261464
0.261388
0.261316
0.261248
0.261182
0.261119
0.261058
0.260999
0.260941
0.260885
0.260829
0.260775
0.260721
0.260668
0.260615
0.260562
0.26051
0.260457
0.260404
0.260351
0.260297
0.260242
0.260185
0.260128
0.260069
0.260007
0.259943
0.259877
0.259806
0.259733
0.259655
0.259575
0.259495
0.259421
0.259362
0.25934
0.25938
0.259537
0.534857
0.701917
0.828722
0.934567
1.03096
1.12459
1.21948
1.31773
1.41985
1.52515
1.63219
1.73909
1.84394
1.94496
2.04056
2.12943
2.21044
2.28267
2.34536
2.3979
2.43987
2.47101
2.49135
2.50117
2.50112
2.49223
2.4759
2.45391
2.42836
2.40151
2.37567
2.35301
2.33538
2.32418
2.32029
2.32405
2.33536
2.35407
2.37869
2.40777
2.44026
2.47568
2.51412
2.55613
2.60251
2.65389
2.71038
2.77121
2.83454
2.89747
2.95641
3.00764
3.04781
3.0742
3.08532
3.08062
3.06043
3.02646
2.98074
2.92479
2.85987
2.78708
2.70744
2.62186
2.53123
2.43638
2.33814
2.23729
2.13462
2.03088
1.92681
1.82311
1.72047
1.61951
1.52081
1.42494
1.33236
1.24352
1.15878
1.07845
1.00276
0.931856
0.86584
0.804723
0.748456
0.696926
0.649967
0.607372
0.568898
0.534281
0.503239
0.47549
0.450749
0.428743
0.40921
0.391902
0.376589
0.36306
0.35112
0.340593
0.33132
0.323157
0.315976
0.309662
0.304112
0.299236
0.294953
0.291191
0.287889
0.28499
0.282445
0.280212
0.278253
0.276535
0.275028
0.273707
0.272549
0.271534
0.270644
0.269864
0.269179
0.268578
0.268051
0.267588
0.267181
0.266822
0.266507
0.266229
0.265983
0.265765
0.265572
0.2654
0.265246
0.265108
0.264984
0.264872
0.264771
0.264678
0.264594
0.264516
0.264444
0.264377
0.264315
0.264256
0.264201
0.264149
0.264099
0.264051
0.264005
0.26396
0.263917
0.263875
0.263833
0.263793
0.263753
0.263713
0.263673
0.263634
0.263595
0.263555
0.263515
0.263475
0.263435
0.263394
0.263351
0.263308
0.263264
0.263218
0.26317
0.263121
0.263069
0.263016
0.262961
0.262907
0.262857
0.262817
0.2628
0.262826
0.262921
0.263129
0.53124
0.689362
0.813789
0.921671
1.02319
1.12402
1.22741
1.33488
1.44645
1.56102
1.67672
1.79139
1.90281
2.00896
2.10808
2.19872
2.27961
2.34972
2.40813
2.45408
2.48696
2.50634
2.51214
2.50464
2.48464
2.45354
2.4134
2.36686
2.31711
2.26755
2.22156
2.18214
2.15158
2.1313
2.12179
2.1227
2.13305
2.15088
2.17205
2.19408
2.21557
2.23616
2.25653
2.27839
2.30414
2.33632
2.37702
2.42721
2.48629
2.55184
2.61985
2.68566
2.74478
2.79275
2.82708
2.84632
2.85065
2.84144
2.8199
2.78719
2.74442
2.69259
2.63265
2.56546
2.49186
2.41266
2.32864
2.2406
2.14932
2.05557
1.96009
1.86362
1.76686
1.67048
1.57513
1.48139
1.38984
1.30099
1.21531
1.13321
1.05505
0.981127
0.911661
0.846803
0.786633
0.731158
0.680317
0.633989
0.592
0.554133
0.520141
0.489752
0.462687
0.438662
0.417396
0.39862
0.382079
0.367535
0.354766
0.343572
0.333769
0.325191
0.317692
0.311139
0.305415
0.300417
0.296053
0.292243
0.288917
0.286013
0.283477
0.281263
0.27933
0.277642
0.276168
0.274882
0.273759
0.272778
0.271923
0.271175
0.270523
0.269953
0.269456
0.269022
0.268642
0.268311
0.268021
0.267768
0.267546
0.267351
0.26718
0.267029
0.266896
0.266778
0.266673
0.26658
0.266496
0.266421
0.266353
0.266291
0.266235
0.266183
0.266135
0.26609
0.266049
0.26601
0.265972
0.265937
0.265903
0.26587
0.265839
0.265808
0.265778
0.265748
0.265719
0.26569
0.265662
0.265633
0.265605
0.265576
0.265547
0.265518
0.265488
0.265458
0.265428
0.265396
0.265364
0.265331
0.265297
0.265261
0.265225
0.265188
0.265152
0.265119
0.265092
0.26508
0.265094
0.265154
0.265285
0.265524
0.522457
0.672256
0.793526
0.902055
1.00695
1.11308
1.22306
1.33785
1.45701
1.57904
1.70178
1.82275
1.93951
2.04986
2.15189
2.24401
2.32485
2.39321
2.44799
2.48823
2.51306
2.52187
2.51442
2.49103
2.45277
2.40164
2.34064
2.27373
2.20553
2.1409
2.08437
2.03953
2.0086
1.9923
1.98983
1.99926
2.01798
2.04132
2.06384
2.0824
2.0951
2.10126
2.10166
2.09874
2.09635
2.09907
2.11137
2.13666
2.17646
2.22991
2.29331
2.36143
2.4295
2.491
2.54163
2.58024
2.60609
2.61925
2.62022
2.60973
2.58862
2.55769
2.51774
2.46954
2.41383
2.35138
2.28293
2.20927
2.13115
2.04933
1.96458
1.87762
1.78915
1.69985
1.61038
1.52134
1.43334
1.34692
1.26261
1.18089
1.10222
1.02699
0.955534
0.888139
0.825013
0.766295
0.712049
0.66227
0.616883
0.575753
0.538697
0.50549
0.475878
0.449589
0.426343
0.405862
0.387873
0.372115
0.358345
0.346335
0.335878
0.326786
0.318888
0.312035
0.306091
0.300937
0.29647
0.292598
0.289241
0.28633
0.283805
0.281614
0.279712
0.278062
0.276628
0.275383
0.274301
0.273362
0.272546
0.271836
0.27122
0.270684
0.270219
0.269815
0.269464
0.269159
0.268894
0.268664
0.268464
0.26829
0.268139
0.268007
0.267891
0.26779
0.267701
0.267623
0.267553
0.267492
0.267437
0.267388
0.267343
0.267303
0.267266
0.267232
0.2672
0.267171
0.267143
0.267117
0.267092
0.267068
0.267045
0.267022
0.267
0.266979
0.266958
0.266937
0.266916
0.266896
0.266875
0.266854
0.266834
0.266813
0.266791
0.26677
0.266748
0.266725
0.266702
0.266678
0.266654
0.266629
0.266604
0.26658
0.266557
0.26654
0.266531
0.266538
0.266573
0.266655
0.266807
0.267059
0.509714
0.652654
0.770639
0.878825
0.985558
1.09515
1.20972
1.32982
1.45464
1.58238
1.7106
1.83664
1.95789
2.07198
2.1769
2.27093
2.35257
2.42048
2.4734
2.51011
2.52951
2.53074
2.51341
2.47785
2.42546
2.35892
2.28233
2.20109
2.12141
2.04957
1.99099
1.94944
1.92651
1.9216
1.9322
1.95444
1.98386
2.01432
2.04085
2.05997
2.069
2.06623
2.05147
2.02691
1.99707
1.96797
1.94629
1.93794
1.94699
1.97516
2.02032
2.07671
2.13922
2.20222
2.26092
2.31194
2.3532
2.38367
2.40306
2.41155
2.40951
2.39747
2.37596
2.34561
2.30702
2.26088
2.20789
2.14879
2.08431
2.01521
1.94221
1.86604
1.78739
1.7069
1.6252
1.5429
1.46056
1.37874
1.29797
1.21877
1.14161
1.06697
0.995247
0.926833
0.862047
0.80115
0.744333
0.691717
0.643346
0.599194
0.55917
0.523122
0.490856
0.462139
0.436713
0.414308
0.394649
0.377465
0.362494
0.34949
0.338222
0.328479
0.320069
0.312821
0.30658
0.30121
0.296592
0.292622
0.289207
0.286271
0.283744
0.281569
0.279696
0.278081
0.276688
0.275487
0.274449
0.273554
0.27278
0.272111
0.271532
0.271033
0.270601
0.270227
0.269905
0.269626
0.269386
0.269178
0.268998
0.268843
0.268709
0.268592
0.268491
0.268404
0.268327
0.26826
0.268202
0.26815
0.268105
0.268064
0.268027
0.267995
0.267965
0.267938
0.267913
0.26789
0.267868
0.267847
0.267828
0.267809
0.267791
0.267774
0.267757
0.267741
0.267724
0.267708
0.267692
0.267677
0.267661
0.267645
0.267629
0.267613
0.267597
0.267581
0.267564
0.267547
0.26753
0.267512
0.267494
0.267476
0.267459
0.267443
0.26743
0.267422
0.267424
0.267443
0.267491
0.267584
0.267744
0.267995
0.495807
0.632812
0.74766
0.855172
0.962669
1.07413
1.19142
1.31482
1.44332
1.57498
1.70722
1.83726
1.96241
2.08021
2.18854
2.28565
2.36963
2.43916
2.49286
2.52932
2.54721
2.54541
2.52334
2.48125
2.42068
2.3448
2.25856
2.16852
2.08217
2.00685
1.94856
1.91095
1.89489
1.89868
1.91853
1.94938
1.98559
2.02148
2.05285
2.07599
2.08736
2.08387
2.06333
2.02683
1.97841
1.92442
1.87286
1.8317
1.80718
1.80279
1.81884
1.85272
1.8998
1.95449
2.01136
2.06587
2.11474
2.15585
2.18801
2.21064
2.22359
2.22693
2.22089
2.20584
2.18225
2.15069
2.11178
2.06622
2.01471
1.95799
1.89675
1.83168
1.76343
1.69262
1.61983
1.54561
1.47048
1.39496
1.31954
1.24472
1.17096
1.09875
1.02855
0.960773
0.895834
0.834085
0.775826
0.721294
0.670655
0.624001
0.581353
0.542659
0.507806
0.476628
0.448918
0.424435
0.402924
0.384117
0.367749
0.353561
0.341306
0.330753
0.321691
0.313925
0.307284
0.301611
0.296771
0.292644
0.289127
0.286129
0.283572
0.281392
0.279531
0.277941
0.276582
0.275418
0.274422
0.273568
0.272835
0.272206
0.271665
0.271201
0.270802
0.270459
0.270164
0.26991
0.269692
0.269504
0.269342
0.269203
0.269083
0.268979
0.26889
0.268812
0.268744
0.268685
0.268634
0.268588
0.268548
0.268512
0.268479
0.26845
0.268424
0.2684
0.268377
0.268356
0.268336
0.268318
0.2683
0.268283
0.268267
0.268251
0.268236
0.268221
0.268206
0.268191
0.268177
0.268163
0.268149
0.268135
0.268121
0.268106
0.268092
0.268078
0.268064
0.268049
0.268034
0.26802
0.268005
0.26799
0.267977
0.267964
0.267956
0.267953
0.26796
0.267985
0.268038
0.268134
0.268292
0.268535
0.482247
0.61576
0.727621
0.834529
0.942333
1.05468
1.17332
1.29846
1.42905
1.56311
1.69808
1.83117
1.95963
2.08096
2.19296
2.29375
2.38159
2.45496
2.51235
2.55223
2.5731
2.57367
2.5531
2.51147
2.45016
2.37236
2.28321
2.18966
2.09973
2.02126
1.96052
1.92115
1.9038
1.90642
1.92514
1.95538
1.99183
2.02914
2.06322
2.09027
2.10624
2.10706
2.08938
2.05189
1.99651
1.92868
1.85663
1.78947
1.73531
1.69988
1.68597
1.69328
1.71887
1.758
1.8053
1.8557
1.90506
1.95032
1.98939
2.02094
2.04418
2.05868
2.06432
2.0612
2.04961
2.02999
2.0029
1.96898
1.92889
1.88332
1.83297
1.77846
1.72041
1.65937
1.59587
1.53038
1.46337
1.39526
1.32648
1.25748
1.18869
1.12054
1.05349
0.987984
0.924447
0.863295
0.804903
0.749602
0.697663
0.649291
0.60462
0.56371
0.526548
0.493057
0.463101
0.436498
0.413031
0.392458
0.374527
0.358979
0.345561
0.33403
0.324159
0.315736
0.308568
0.302484
0.297329
0.292967
0.28928
0.286166
0.283536
0.281315
0.279438
0.27785
0.276506
0.275368
0.274401
0.27358
0.272882
0.272288
0.271781
0.271348
0.270979
0.270662
0.270392
0.27016
0.269961
0.26979
0.269643
0.269516
0.269406
0.269311
0.269228
0.269156
0.269093
0.269037
0.268988
0.268943
0.268904
0.268868
0.268835
0.268805
0.268778
0.268752
0.268728
0.268705
0.268683
0.268662
0.268642
0.268623
0.268604
0.268586
0.268568
0.268551
0.268534
0.268518
0.268501
0.268485
0.26847
0.268454
0.268439
0.268423
0.268408
0.268393
0.268377
0.268362
0.268347
0.268332
0.268317
0.268303
0.268289
0.268278
0.268269
0.268267
0.268276
0.268301
0.268353
0.268446
0.268597
0.268824
0.470275
0.603538
0.712686
0.818994
0.926836
1.03944
1.15848
1.28423
1.41574
1.55117
1.68807
1.82373
1.95543
2.08066
2.19717
2.30299
2.39638
2.47571
2.53943
2.58594
2.6137
2.62132
2.60783
2.57309
2.51822
2.44603
2.36125
2.27038
2.18094
2.10041
2.03483
1.98791
1.96064
1.95172
1.95856
1.97861
2.00753
2.04016
2.0723
2.09999
2.11883
2.12394
2.11059
2.07561
2.01898
1.94481
1.86076
1.77619
1.70012
1.63982
1.60004
1.58258
1.58627
1.60762
1.64181
1.68377
1.72892
1.77354
1.81482
1.85074
1.87991
1.90145
1.91489
1.92009
1.91717
1.90646
1.88846
1.86375
1.83298
1.79681
1.75588
1.71079
1.6621
1.6103
1.55583
1.49911
1.44049
1.38033
1.31898
1.25676
1.19406
1.13124
1.06872
1.00689
0.946196
0.887056
0.829885
0.775071
0.722962
0.673855
0.627985
0.585517
0.546544
0.511089
0.479106
0.450488
0.425081
0.40269
0.383092
0.36605
0.351318
0.338651
0.327813
0.318582
0.310751
0.304129
0.298548
0.293854
0.289915
0.286613
0.28385
0.281537
0.279603
0.277984
0.276627
0.27549
0.274536
0.273733
0.273057
0.272486
0.272004
0.271595
0.271249
0.270953
0.270701
0.270485
0.2703
0.270141
0.270003
0.269883
0.269778
0.269686
0.269605
0.269534
0.269469
0.269411
0.269359
0.269311
0.269267
0.269226
0.269188
0.269152
0.269118
0.269085
0.269054
0.269025
0.268996
0.268969
0.268942
0.268916
0.268891
0.268866
0.268842
0.268819
0.268796
0.268774
0.268752
0.268731
0.26871
0.26869
0.26867
0.26865
0.26863
0.268611
0.268592
0.268574
0.268555
0.268537
0.268519
0.268502
0.268486
0.268472
0.268461
0.268457
0.268462
0.268484
0.268532
0.268617
0.268757
0.268965
0.461453
0.598138
0.704887
0.810217
0.917678
1.03007
1.14897
1.27473
1.40663
1.54306
1.68179
1.82026
1.95583
2.08596
2.20837
2.32098
2.42198
2.50968
2.58248
2.63882
2.67717
2.69615
2.69474
2.67262
2.63051
2.57059
2.49666
2.41409
2.32926
2.24867
2.17791
2.12083
2.07923
2.05317
2.04181
2.0448
2.05856
2.07904
2.1023
2.12419
2.13991
2.1439
2.13042
2.09498
2.03625
1.9572
1.86475
1.76791
1.67588
1.59684
1.53692
1.49946
1.48466
1.49007
1.51152
1.54416
1.58326
1.62472
1.66521
1.7022
1.73385
1.75892
1.77668
1.78681
1.78934
1.78453
1.77283
1.75483
1.73113
1.70238
1.66918
1.63209
1.5916
1.54815
1.50211
1.45378
1.40346
1.35138
1.29778
1.24293
1.18707
1.13051
1.07358
1.01661
0.960013
0.904176
0.849519
0.79645
0.745361
0.696609
0.650507
0.607311
0.567209
0.530322
0.4967
0.466327
0.439125
0.414965
0.393677
0.375059
0.358892
0.344944
0.332985
0.322788
0.314138
0.306835
0.300693
0.295548
0.291251
0.287671
0.284695
0.282225
0.280176
0.278478
0.277071
0.275903
0.274933
0.274126
0.273454
0.272892
0.272421
0.272026
0.271691
0.271408
0.271166
0.270959
0.270781
0.270626
0.27049
0.270371
0.270265
0.27017
0.270085
0.270007
0.269936
0.269869
0.269808
0.26975
0.269695
0.269643
0.269594
0.269546
0.2695
0.269456
0.269413
0.269372
0.269331
0.269292
0.269254
0.269217
0.26918
0.269145
0.269111
0.269077
0.269045
0.269013
0.268982
0.268952
0.268923
0.268894
0.268867
0.26884
0.268813
0.268787
0.268762
0.268737
0.268713
0.268689
0.268666
0.268643
0.268622
0.268603
0.268588
0.268579
0.26858
0.268596
0.268637
0.268713
0.268839
0.269029
0.45929
0.60216
0.707374