/*--------------------------------*- C++ -*----------------------------------*\
  =========                 |
  \\      /  F ield         | OpenFOAM: The Open Source CFD Toolbox
   \\    /   O peration     | Website:  https://openfoam.org
    \\  /    A nd           | Version:  9
     \\/     M anipulation  |
\*---------------------------------------------------------------------------*/
FoamFile
{
    format      ascii;
    class       volScalarField;
    location    "0.01";
    object      nut;
}
// * * * * * * * * * * * * * * * * * * * * * * * * * * * * * * * * * * * * * //

dimensions      [0 2 -1 0 0 0 0];

internalField   nonuniform List<scalar> 
12225
(
4.04307e-05
3.81999e-05
3.60805e-05
3.42205e-05
3.27389e-05
3.16815e-05
3.10437e-05
3.07888e-05
3.08625e-05
3.12041e-05
3.1754e-05
3.24576e-05
3.32684e-05
3.41475e-05
3.50652e-05
3.59981e-05
3.69401e-05
3.83647e-05
0.00028137
0.000208747
0.000175621
0.000156893
0.000145848
0.000139393
0.000135604
0.000133324
0.00013187
0.000130858
0.000130076
0.000129412
0.00012881
0.000128245
0.00012771
0.000127192
0.000126749
0.000126112
0.000557959
0.000421939
0.00035146
0.000306047
0.000273484
0.000248816
0.000229444
0.000213863
0.000201151
0.000190691
0.000182036
0.00017484
0.00016883
0.000163783
0.000159521
0.000155881
0.000152757
0.000149885
0.000741172
0.000627449
0.000546079
0.000487004
0.000441674
0.000405408
0.000375442
0.000350055
0.000328167
0.000309082
0.000292325
0.000277547
0.000264474
0.000252875
0.000242552
0.000233308
0.000224979
0.000217361
0.000817356
0.000759902
0.000701729
0.000650052
0.00060553
0.000567289
0.000534195
0.000505214
0.000479536
0.000456561
0.000435844
0.000417052
0.000399927
0.000384254
0.000369851
0.000356545
0.000344178
0.00033267
0.000842181
0.000819955
0.000790433
0.000758355
0.00072651
0.000696286
0.000668215
0.000642359
0.00061858
0.000596682
0.000576462
0.000557734
0.000540331
0.000524102
0.000508911
0.000494625
0.000481123
0.000468438
0.000849281
0.000841886
0.000829917
0.000814485
0.000796912
0.000778326
0.000759541
0.000741063
0.000723176
0.000706026
0.000689671
0.000674115
0.000659334
0.000645283
0.000631908
0.000619143
0.000606928
0.000595371
0.000851125
0.000848768
0.000844531
0.000838334
0.000830405
0.000821127
0.000810909
0.000800114
0.000789028
0.000777865
0.000766776
0.000755864
0.000745194
0.000734802
0.000724702
0.000714893
0.000705372
0.000696278
0.000851561
0.00085067
0.000849183
0.000846914
0.000843791
0.000839839
0.000835151
0.000829855
0.000824084
0.000817965
0.000811608
0.000805105
0.000798529
0.000791935
0.000785363
0.000778842
0.000772397
0.00076616
0.000851653
0.000851134
0.000850471
0.000849571
0.000848361
0.000846797
0.000844866
0.000842579
0.000839966
0.000837067
0.000833926
0.000830589
0.000827096
0.000823484
0.000819786
0.000816027
0.000812237
0.00080851
0.000851668
0.000851231
0.000850779
0.00085028
0.000849702
0.000849015
0.000848196
0.000847233
0.00084612
0.000844859
0.000843458
0.000841929
0.000840285
0.000838542
0.000836713
0.000834814
0.000832863
0.000830918
0.00085167
0.000851245
0.000850835
0.00085043
0.000850016
0.000849579
0.000849108
0.000848591
0.00084802
0.00084739
0.000846698
0.000845946
0.000845134
0.000844268
0.000843352
0.000842393
0.000841401
0.000840411
0.000851668
0.000851245
0.000850843
0.00085046
0.00085009
0.000849729
0.000849371
0.00084901
0.000848641
0.000848261
0.000847866
0.000847454
0.000847024
0.000846576
0.000846111
0.000845631
0.000845142
0.000844665
0.000851667
0.000851242
0.00085084
0.000850459
0.000850098
0.000849754
0.000849426
0.00084911
0.000848805
0.000848509
0.000848219
0.000847934
0.000847654
0.000847378
0.000847107
0.00084684
0.000846582
0.000846347
0.000851666
0.000851239
0.000850835
0.000850453
0.000850091
0.000849749
0.000849424
0.000849117
0.000848824
0.000848546
0.000848282
0.000848031
0.000847792
0.000847566
0.000847353
0.000847154
0.000846971
0.000846817
0.000851665
0.000851237
0.000850831
0.000850447
0.000850084
0.00084974
0.000849415
0.000849106
0.000848814
0.000848538
0.000848277
0.000848031
0.000847799
0.000847582
0.00084738
0.000847193
0.000847026
0.000846887
0.000851664
0.000851235
0.000850828
0.000850443
0.000850078
0.000849733
0.000849406
0.000849096
0.000848802
0.000848525
0.000848262
0.000848015
0.000847782
0.000847564
0.000847361
0.000847173
0.000847003
0.000846862
0.000851664
0.000851234
0.000850826
0.00085044
0.000850075
0.000849728
0.000849399
0.000849088
0.000848793
0.000848513
0.000848248
0.000847998
0.000847762
0.00084754
0.000847332
0.000847138
0.000846961
0.000846812
0.000851663
0.000851233
0.000850826
0.000850439
0.000850073
0.000849726
0.000849396
0.000849083
0.000848786
0.000848503
0.000848235
0.000847981
0.00084774
0.000847512
0.000847297
0.000847095
0.000846908
0.000846747
0.000851664
0.000851234
0.000850827
0.000850441
0.000850075
0.000849727
0.000849397
0.000849083
0.000848784
0.000848499
0.000848227
0.000847968
0.000847721
0.000847486
0.000847263
0.00084705
0.000846851
0.000846677
0.000851664
0.000851235
0.000850829
0.000850444
0.000850078
0.00084973
0.000849398
0.00084908
0.000848775
0.000848483
0.0008482
0.000847928
0.000847664
0.000847407
0.000847159
0.000846918
0.000846685
0.000846473
0.000851665
0.000851237
0.00085083
0.000850442
0.000850068
0.000849704
0.000849347
0.000848991
0.000848635
0.000848275
0.000847908
0.000847534
0.00084715
0.000846757
0.000846354
0.000845941
0.000845521
0.000845107
0.000851664
0.000851228
0.000850795
0.000850347
0.000849868
0.00084934
0.000848751
0.000848093
0.00084736
0.00084655
0.000845665
0.000844708
0.000843685
0.000842601
0.000841463
0.000840277
0.000839054
0.000837816
0.000851634
0.000851074
0.000850344
0.000849364
0.000848079
0.000846463
0.000844517
0.000842264
0.000839735
0.00083697
0.00083401
0.000830893
0.000827656
0.00082433
0.000820943
0.00081752
0.000814082
0.000810677
0.000851289
0.000849604
0.00084674
0.000842608
0.000837303
0.000831024
0.000824012
0.000816495
0.000808664
0.000800674
0.000792643
0.00078466
0.000776785
0.000769063
0.000761521
0.000754177
0.000747045
0.00074018
0.000848337
0.000839496
0.000826305
0.00081023
0.000792624
0.000774522
0.000756617
0.000739311
0.000722798
0.000707158
0.000692399
0.000678494
0.000665394
0.000653045
0.000641388
0.000630369
0.000619939
0.000610113
0.000828688
0.000789234
0.000746639
0.000706417
0.000670211
0.00063822
0.000610089
0.00058527
0.000563227
0.000543507
0.000525742
0.000509632
0.000494936
0.00048146
0.000469045
0.000457562
0.000446903
0.000437027
0.000731416
0.000628302
0.000555356
0.000501744
0.000460859
0.000428747
0.000402892
0.00038158
0.000363665
0.000348369
0.000335147
0.000323599
0.000313429
0.000304406
0.000296351
0.000289121
0.000282597
0.000276698
0.000439506
0.000337792
0.000287025
0.000255989
0.000235571
0.000221835
0.000212424
0.000205836
0.000201109
0.000197629
0.000194998
0.000192953
0.000191318
0.000189973
0.000188838
0.000187857
0.000186992
0.000186197
7.16031e-05
6.89508e-05
6.63887e-05
6.39634e-05
6.17643e-05
5.98424e-05
5.82168e-05
5.68845e-05
5.58288e-05
5.50255e-05
5.44474e-05
5.40667e-05
5.38567e-05
5.37929e-05
5.38528e-05
5.40166e-05
5.42671e-05
5.45881e-05
2.78907e-05
0.000185094
0.000206759
0.000210221
4.83253e-05
5.04671e-05
5.28367e-05
5.53002e-05
5.79393e-05
6.08108e-05
6.39313e-05
6.72908e-05
7.08634e-05
7.46144e-05
7.85034e-05
8.2487e-05
8.65209e-05
9.05618e-05
9.45695e-05
9.85082e-05
0.000102348
0.000106063
0.000109637
0.000113054
0.000116307
0.000119392
0.000122306
0.000125051
0.00012763
0.000130047
0.000132308
0.000134419
0.000136387
0.00013822
0.000139927
0.000141515
0.000142999
0.000144496
0.000145961
0.000147241
0.000148334
0.000149235
0.000149934
0.000150419
0.000150679
0.0001507
0.000150471
0.000149981
0.000149223
0.000148191
0.000146883
0.000145298
0.000143442
0.000141322
0.000138949
0.000136335
0.000133495
0.000130443
0.000127192
0.000123751
0.000120113
0.000116318
0.000112375
0.000109148
0.00010655
0.000104039
0.000101553
9.90873e-05
9.66517e-05
9.42573e-05
9.19163e-05
8.96407e-05
8.74417e-05
8.533e-05
8.33155e-05
8.1407e-05
7.96127e-05
7.79392e-05
7.63922e-05
7.49759e-05
7.36929e-05
7.25442e-05
7.1529e-05
7.06446e-05
6.98869e-05
6.92498e-05
6.8726e-05
6.83071e-05
6.79838e-05
6.77462e-05
6.75842e-05
6.74878e-05
6.74473e-05
6.74534e-05
6.74975e-05
6.75718e-05
6.76692e-05
6.77835e-05
6.79092e-05
6.80417e-05
6.8177e-05
6.83121e-05
6.84441e-05
6.85711e-05
6.86915e-05
6.88039e-05
6.89077e-05
6.90021e-05
6.9087e-05
6.91616e-05
6.92241e-05
6.92748e-05
6.9314e-05
6.93421e-05
6.93593e-05
6.9366e-05
6.93625e-05
6.93495e-05
6.93274e-05
6.92969e-05
6.92589e-05
6.92141e-05
6.91632e-05
6.91071e-05
6.90463e-05
6.89814e-05
6.8913e-05
6.88415e-05
6.87673e-05
6.86905e-05
6.86116e-05
6.85306e-05
6.84478e-05
6.83632e-05
6.82772e-05
6.81896e-05
6.81006e-05
6.80103e-05
6.79187e-05
6.78259e-05
6.7732e-05
6.76369e-05
6.75407e-05
6.74435e-05
6.73452e-05
6.72459e-05
6.71456e-05
6.70443e-05
6.69421e-05
6.68388e-05
6.67346e-05
6.66295e-05
6.65234e-05
6.64163e-05
6.63081e-05
6.6199e-05
6.60887e-05
6.59774e-05
6.58648e-05
6.57509e-05
6.56356e-05
6.55188e-05
6.54001e-05
6.52795e-05
6.51565e-05
6.50308e-05
6.49018e-05
6.47687e-05
6.46307e-05
6.44865e-05
6.43342e-05
6.41716e-05
6.39952e-05
6.38e-05
6.35787e-05
6.33194e-05
6.30043e-05
6.25938e-05
6.20579e-05
6.11372e-05
5.55345e-05
0.000170583
0.000226958
0.000251357
0.000262981
0.000272242
0.000278638
0.000283618
0.000288261
0.000293166
0.000298588
0.000304586
0.000311149
0.000318266
0.00032596
0.000334301
0.000343404
0.000353416
0.000364512
0.000376879
0.000390709
0.000406192
0.000423508
0.00044282
0.000464269
0.000487966
0.000513984
0.000542345
0.000573011
0.000605867
0.000640702
0.000677194
0.000714885
0.000753161
0.000791237
0.00082816
0.000862848
0.000893791
0.000922905
0.000951497
0.000979472
0.00100658
0.00103253
0.00105703
0.0010798
0.00110053
0.00111896
0.00113484
0.00114792
0.00115803
0.001165
0.00116872
0.00116912
0.00116619
0.00115991
0.00115034
0.00113752
0.0011215
0.00110231
0.00107993
0.00105432
0.00102547
0.000993532
0.000960414
0.000927152
0.000893515
0.00085956
0.000825438
0.000791312
0.000757341
0.000723671
0.000690431
0.000657737
0.000625691
0.00059438
0.000563885
0.000534275
0.000505614
0.000477961
0.00045137
0.000425891
0.000401569
0.000378445
0.000356552
0.000335914
0.000316547
0.000298453
0.000281624
0.00026604
0.000251669
0.000238467
0.000226384
0.000215361
0.000205333
0.000196236
0.000187998
0.000180554
0.000173836
0.00016778
0.000162324
0.000157412
0.00015299
0.00014901
0.000145426
0.000142197
0.000139286
0.00013666
0.000134289
0.000132145
0.00013018
0.00012834
0.000126619
0.000125012
0.000123528
0.000122169
0.000120928
0.000119797
0.000118772
0.000117846
0.000117011
0.000116259
0.000115582
0.000114971
0.000114416
0.000113911
0.000113449
0.000113022
0.000112625
0.000112254
0.000111905
0.000111574
0.000111259
0.000110958
0.000110668
0.000110388
0.000110116
0.000109851
0.000109593
0.000109339
0.00010909
0.000108845
0.000108603
0.000108364
0.000108127
0.000107891
0.000107657
0.000107424
0.000107191
0.000106959
0.000106727
0.000106495
0.000106263
0.000106029
0.000105795
0.00010556
0.000105322
0.000105083
0.000104842
0.000104597
0.00010435
0.000104099
0.000103842
0.000103581
0.000103312
0.000103034
0.000102747
0.000102445
0.000102127
0.000101787
0.000101419
0.000101013
0.000100555
0.000100027
9.93983e-05
9.86233e-05
9.7633e-05
9.62953e-05
9.453e-05
9.17475e-05
8.96766e-05
9.82539e-05
0.000262835
0.000354501
0.000401103
0.000426833
0.000443034
0.000454595
0.000464252
0.000473716
0.000484003
0.000495652
0.00050892
0.000523941
0.000540816
0.000559657
0.000580595
0.000603771
0.000629317
0.000657337
0.000687887
0.00072097
0.000756521
0.000794412
0.000834451
0.000876391
0.000919939
0.00096477
0.00101053
0.00105687
0.00110341
0.00114979
0.00119567
0.00124071
0.00128461
0.0013271
0.00136793
0.0014069
0.00144379
0.00148014
0.00151613
0.00155156
0.00158616
0.0016196
0.00165151
0.00168152
0.00170924
0.0017343
0.0017563
0.00177487
0.00178969
0.00180043
0.00180686
0.00180876
0.00180601
0.00179853
0.00178632
0.00176943
0.00174798
0.00172212
0.00169205
0.001658
0.00162022
0.00157906
0.00153611
0.00149209
0.00144712
0.0014014
0.0013552
0.00130881
0.00126249
0.00121648
0.001171
0.00112623
0.00108233
0.00103942
0.000997592
0.000956924
0.000917461
0.000879233
0.000842258
0.000806545
0.000772097
0.000738916
0.000707007
0.000676374
0.000647028
0.000618979
0.000592241
0.000566825
0.000542743
0.000519998
0.000498589
0.000478504
0.000459725
0.000442224
0.000425962
0.000410896
0.000396972
0.000384133
0.00037232
0.000361468
0.000351514
0.000342394
0.000334045
0.000326406
0.000319422
0.000313035
0.000307196
0.000301855
0.000296964
0.000292471
0.000288332
0.000284506
0.000280916
0.000277507
0.000274293
0.000271291
0.000268489
0.000265876
0.000263441
0.000261173
0.000259063
0.000257099
0.000255271
0.000253567
0.000251977
0.000250492
0.000249101
0.000247796
0.000246569
0.000245413
0.000244321
0.000243287
0.000242307
0.000241375
0.000240487
0.000239639
0.000238828
0.00023805
0.000237301
0.00023658
0.000235884
0.000235209
0.000234554
0.000233917
0.000233296
0.000232689
0.000232094
0.000231509
0.000230934
0.000230367
0.000229806
0.00022925
0.000228698
0.000228148
0.000227599
0.00022705
0.000226498
0.000225942
0.00022538
0.00022481
0.000224228
0.000223631
0.000223015
0.000222374
0.000221702
0.00022099
0.000220225
0.000219393
0.000218471
0.000217431
0.00021623
0.000214807
0.00021307
0.000210871
0.000207983
0.00020396
0.000198201
0.000188834
0.00017538
0.000127326
0.000331375
0.000454253
0.000522284
0.000561902
0.000587584
0.000606895
0.000623939
0.000641056
0.000659558
0.000680113
0.000703013
0.000728349
0.000756124
0.000786303
0.000818821
0.00085358
0.000890432
0.000929169
0.000969522
0.00101116
0.00105372
0.0010968
0.00114002
0.001183
0.00122543
0.00126705
0.0013077
0.00134727
0.00138576
0.00142319
0.00145967
0.00149531
0.0015302
0.00156441
0.00159797
0.0016308
0.00166303
0.00169562
0.00172862
0.00176188
0.00179518
0.00182823
0.0018607
0.00189223
0.00192242
0.00195084
0.00197704
0.00200056
0.00202091
0.00203763
0.00205029
0.00205849
0.0020619
0.00206026
0.0020534
0.00204125
0.0020238
0.00200115
0.00197345
0.00194094
0.00190387
0.00186275
0.00181914
0.00177355
0.00172627
0.00167765
0.00162808
0.00157793
0.00152759
0.0014774
0.00142769
0.00137875
0.00133083
0.00128412
0.00123879
0.00119496
0.0011527
0.00111206
0.00107304
0.00103563
0.000999771
0.000965423
0.00093252
0.000900997
0.00087079
0.000841844
0.000814114
0.000787562
0.000762163
0.000737902
0.000714769
0.000692761
0.000671875
0.000652109
0.000633457
0.000615908
0.000599445
0.000584046
0.000569679
0.00055631
0.000543897
0.000532395
0.000521755
0.000511927
0.00050286
0.000494504
0.000486807
0.00047972
0.000473197
0.00046719
0.000461656
0.000456551
0.000451829
0.000447445
0.000443334
0.000439433
0.000435776
0.000432345
0.000429125
0.000426099
0.000423253
0.000420576
0.000418054
0.000415677
0.000413435
0.000411317
0.000409315
0.000407421
0.000405627
0.000403925
0.00040231
0.000400775
0.000399315
0.000397924
0.000396597
0.00039533
0.000394119
0.000392957
0.000391843
0.000390772
0.000389739
0.000388743
0.000387778
0.000386843
0.000385935
0.00038505
0.000384186
0.00038334
0.000382511
0.000381696
0.000380893
0.0003801
0.000379315
0.000378536
0.000377761
0.000376988
0.000376214
0.000375438
0.000374655
0.000373864
0.00037306
0.000372239
0.000371395
0.000370523
0.000369613
0.000368654
0.000367633
0.000366532
0.000365323
0.000363974
0.000362434
0.000360634
0.000358467
0.00035577
0.000352281
0.000347528
0.000340754
0.00033009
0.000313651
0.000147188
0.000378103
0.000527111
0.000615198
0.000669334
0.000705769
0.000733827
0.000758798
0.000783646
0.000809938
0.000838391
0.000869213
0.000902336
0.000937554
0.00097459
0.00101312
0.0010528
0.00109323
0.00113399
0.00117465
0.00121475
0.00125388
0.00129168
0.00132786
0.00136222
0.00139468
0.00142526
0.00145409
0.00148138
0.00150742
0.00153251
0.00155697
0.00158107
0.00160505
0.00162906
0.00165316
0.00167733
0.00170182
0.00172748
0.00175447
0.00178272
0.00181211
0.00184245
0.00187348
0.00190493
0.00193644
0.00196762
0.00199798
0.00202701
0.00205413
0.00207872
0.00210014
0.00211778
0.00213105
0.00213944
0.00214254
0.00214002
0.00213171
0.00211751
0.00209745
0.00207165
0.00204029
0.00200428
0.00196473
0.00192209
0.00187676
0.00182916
0.00177976
0.00172904
0.00167748
0.00162554
0.00157367
0.00152228
0.00147174
0.0014224
0.00137451
0.00132832
0.00128399
0.00124163
0.0012013
0.00116302
0.00112676
0.00109244
0.00105998
0.00102926
0.00100016
0.000972548
0.000946304
0.000921316
0.000897487
0.000874737
0.000853003
0.000832241
0.000812421
0.000793526
0.000775544
0.000758473
0.000742309
0.000727047
0.00071268
0.000699194
0.000686571
0.000674787
0.000663812
0.000653613
0.000644153
0.000635393
0.00062729
0.000619804
0.000612892
0.000606513
0.000600626
0.000595193
0.000590176
0.000585535
0.00058123
0.000577211
0.000573413
0.000569853
0.000566511
0.000563366
0.000560403
0.000557607
0.000554963
0.00055246
0.000550086
0.000547833
0.000545692
0.000543656
0.000541717
0.000539869
0.000538108
0.000536427
0.000534822
0.000533289
0.000531822
0.000530418
0.000529073
0.000527782
0.000526542
0.00052535
0.0005242
0.00052309
0.000522016
0.000520975
0.000519964
0.000518979
0.000518019
0.00051708
0.00051616
0.000515256
0.000514366
0.000513488
0.000512621
0.00051176
0.000510905
0.000510053
0.000509202
0.000508348
0.00050749
0.000506624
0.000505746
0.000504852
0.000503936
0.000502992
0.000502011
0.000500984
0.000499897
0.000498732
0.000497465
0.000496064
0.000494483
0.000492657
0.000490493
0.000487847
0.000484494
0.000480051
0.000473894
0.000464709
0.000451041
0.000159864
0.000407085
0.000576767
0.000682402
0.00075021
0.000797176
0.000833657
0.000865815
0.000897157
0.000929506
0.000963623
0.000999635
0.00103732
0.00107627
0.00111602
0.00115606
0.00119585
0.0012349
0.0012727
0.00130878
0.00134273
0.00137423
0.00140303
0.00142903
0.00145224
0.00147277
0.00149088
0.00150691
0.00152125
0.00153436
0.00154667
0.00155862
0.00157058
0.00158285
0.00159565
0.00160914
0.00162336
0.00163866
0.00165596
0.00167549
0.00169732
0.0017214
0.00174766
0.00177599
0.00180622
0.00183813
0.00187139
0.00190559
0.00194021
0.00197462
0.00200807
0.00203974
0.00206879
0.00209434
0.00211559
0.00213181
0.00214239
0.00214687
0.00214495
0.00213642
0.00212123
0.00209964
0.00207266
0.00204094
0.00200488
0.00196489
0.00192144
0.00187503
0.00182619
0.00177549
0.00172348
0.00167071
0.00161773
0.00156505
0.00151315
0.00146244
0.0014133
0.00136605
0.00132093
0.00127811
0.0012377
0.00119975
0.00116423
0.00113109
0.0011002
0.00107143
0.0010446
0.00101952
0.000996028
0.000973932
0.000953078
0.000933325
0.000914558
0.000896689
0.000879652
0.000863402
0.000847914
0.000833173
0.000819174
0.000805915
0.000793394
0.000781608
0.000770547
0.000760199
0.000750544
0.000741561
0.00073322
0.000725491
0.000718341
0.000711734
0.000705635
0.00070001
0.000694821
0.000690036
0.00068562
0.000681541
0.000677761
0.000674232
0.000670919
0.000667817
0.000664905
0.000662165
0.000659582
0.000657141
0.000654828
0.000652635
0.000650549
0.000648564
0.000646672
0.000644866
0.000643141
0.000641492
0.000639915
0.000638405
0.000636959
0.000635573
0.000634243
0.000632967
0.00063174
0.00063056
0.000629424
0.000628327
0.000627267
0.000626242
0.000625247
0.00062428
0.000623338
0.000622419
0.00062152
0.000620639
0.000619774
0.000618922
0.000618082
0.000617251
0.000616427
0.000615608
0.000614793
0.000613978
0.000613161
0.000612341
0.000611513
0.000610675
0.000609822
0.000608951
0.000608054
0.000607125
0.000606155
0.000605132
0.000604041
0.000602861
0.000601564
0.000600114
0.000598455
0.000596513
0.000594173
0.000591263
0.000587503
0.000582448
0.000575269
0.000565157
0.000167183
0.000422635
0.000607728
0.000727762
0.000807349
0.000863593
0.000907409
0.000945548
0.000981953
0.00101868
0.00105655
0.00109564
0.0011356
0.0011759
0.0012159
0.00125498
0.00129252
0.00132795
0.00136075
0.00139049
0.00141683
0.00143952
0.00145847
0.00147368
0.00148533
0.00149368
0.00149914
0.00150217
0.00150332
0.00150316
0.00150227
0.00150118
0.00150041
0.00150036
0.00150139
0.00150376
0.00150763
0.00151346
0.00152206
0.00153371
0.00154846
0.00156638
0.00158749
0.00161184
0.00163945
0.0016703
0.00170427
0.0017411
0.00178036
0.00182145
0.00186357
0.00190577
0.00194697
0.00198602
0.00202178
0.00205317
0.00207925
0.0020992
0.0021125
0.0021186
0.00211716
0.0021089
0.00209439
0.00207395
0.00204789
0.00201657
0.00198043
0.00193997
0.00189576
0.00184837
0.00179843
0.00174658
0.00169345
0.00163968
0.00158587
0.00153259
0.00148037
0.00142969
0.00138095
0.00133448
0.00129055
0.00124933
0.00121092
0.00117533
0.00114252
0.00111238
0.00108475
0.00105942
0.00103617
0.00101477
0.000994985
0.000976592
0.000959395
0.000943225
0.000927945
0.000913449
0.000899665
0.000886543
0.000874056
0.000862191
0.000850943
0.000840313
0.0008303
0.000820901
0.00081211
0.000803915
0.000796297
0.000789237
0.000782707
0.000776681
0.000771128
0.000766017
0.000761317
0.000756996
0.000753023
0.000749369
0.000746004
0.000742892
0.000739991
0.000737285
0.000734758
0.00073239
0.000730166
0.000728072
0.000726095
0.000724223
0.000722448
0.000720761
0.000719154
0.000717621
0.000716157
0.000714757
0.000713418
0.000712134
0.000710903
0.000709722
0.000708588
0.000707498
0.00070645
0.00070544
0.000704466
0.000703526
0.000702617
0.000701735
0.00070088
0.000700048
0.000699238
0.000698446
0.000697672
0.000696912
0.000696166
0.00069543
0.000694704
0.000693986
0.000693274
0.000692565
0.000691859
0.000691154
0.000690447
0.000689736
0.00068902
0.000688294
0.000687556
0.000686801
0.000686026
0.000685224
0.000684388
0.000683508
0.000682572
0.000681564
0.000680462
0.000679235
0.000677844
0.000676231
0.000674311
0.000671963
0.000668995
0.000665115
0.000659829
0.000652755
0.000170584
0.000428249
0.00062397
0.000755139
0.000844216
0.000908081
0.000957931
0.00100089
0.00104123
0.00108116
0.00112157
0.0011625
0.0012035
0.00124393
0.00128306
0.00132016
0.00135456
0.00138566
0.00141294
0.00143601
0.00145456
0.00146841
0.00147755
0.00148209
0.00148227
0.00147849
0.00147126
0.00146121
0.00144903
0.00143547
0.00142129
0.00140722
0.00139395
0.00138207
0.00137207
0.00136434
0.00135916
0.00135697
0.00135813
0.00136268
0.00137059
0.00138192
0.00139681
0.00141554
0.00143841
0.00146574
0.00149775
0.00153451
0.00157585
0.00162133
0.00167021
0.00172147
0.00177388
0.00182599
0.00187635
0.00192347
0.00196608
0.00200283
0.00203319
0.00205543
0.0020704
0.00207824
0.002079
0.00207275
0.00205968
0.00204004
0.00201422
0.00198267
0.00194592
0.00190458
0.00185928
0.00181069
0.00175953
0.0017065
0.0016523
0.00159763
0.00154314
0.00148946
0.00143715
0.00138673
0.0013386
0.00129313
0.00125056
0.00121106
0.0011747
0.00114148
0.0011113
0.00108401
0.00105938
0.00103717
0.0010171
0.000998891
0.000982267
0.000966977
0.0009528
0.000939553
0.000927092
0.000915312
0.000904142
0.000893538
0.000883477
0.00087395
0.000864956
0.000856496
0.000848568
0.000841169
0.00083429
0.000827918
0.000822034
0.000816616
0.000811639
0.000807076
0.000802897
0.000799076
0.000795582
0.000792388
0.000789467
0.000786789
0.000784319
0.000782033
0.000779913
0.000777941
0.000776103
0.000774384
0.000772772
0.000771255
0.000769823
0.00076847
0.000767186
0.000765965
0.000764803
0.000763695
0.000762635
0.000761622
0.000760651
0.00075972
0.000758827
0.000757968
0.000757141
0.000756345
0.000755577
0.000754835
0.000754117
0.000753421
0.000752745
0.000752087
0.000751446
0.000750819
0.000750205
0.000749603
0.00074901
0.000748426
0.000747849
0.000747278
0.00074671
0.000746146
0.000745583
0.00074502
0.000744456
0.000743888
0.000743315
0.000742735
0.000742145
0.000741542
0.000740922
0.000740281
0.000739613
0.000738911
0.000738166
0.000737365
0.000736492
0.000735526
0.000734437
0.000733185
0.000731713
0.000729938
0.000727742
0.000724943
0.000721264
0.000716554
0.000171107
0.000426466
0.0006286
0.000767872
0.000864231
0.000934115
0.000988825
0.00103571
0.0010792
0.00112165
0.00116395
0.0012061
0.00124759
0.00128768
0.00132557
0.00136047
0.00139165
0.0014185
0.0014405
0.00145724
0.00146843
0.00147395
0.00147379
0.00146813
0.00145729
0.00144179
0.0014223
0.00139965
0.00137478
0.00134872
0.00132252
0.00129719
0.00127364
0.00125263
0.00123477
0.00122045
0.00120992
0.00120334
0.00120002
0.00119949
0.0012015
0.00120604
0.00121342
0.00122421
0.00123916
0.00125911
0.00128486
0.00131701
0.00135587
0.00140135
0.00145292
0.00150964
0.0015702
0.00163286
0.00169594
0.00175743
0.00181589
0.00186885
0.00191533
0.00195523
0.00198813
0.00201364
0.00203145
0.0020414
0.00204349
0.00203786
0.00202476
0.00200459
0.00197783
0.00194504
0.00190688
0.00186401
0.00181718
0.00176712
0.0017146
0.00166039
0.00160523
0.00154987
0.001495
0.00144125
0.00138923
0.00133944
0.00129231
0.00124819
0.0012073
0.00116978
0.00113567
0.00110491
0.00107737
0.00105283
0.00103101
0.00101163
0.000994346
0.000978857
0.000964858
0.000952083
0.000940307
0.000929351
0.000919079
0.0009094
0.000900253
0.000891606
0.000883444
0.00087576
0.000868555
0.000861827
0.000855574
0.000849786
0.000844452
0.000839554
0.000835071
0.00083098
0.000827254
0.000823867
0.000820792
0.000818002
0.000815472
0.000813174
0.000811079
0.00080916
0.0008074
0.00080578
0.000804285
0.000802902
0.000801617
0.000800421
0.000799303
0.000798254
0.000797267
0.000796336
0.000795455
0.000794619
0.000793825
0.000793068
0.000792345
0.000791654
0.000790992
0.000790357
0.000789747
0.000789159
0.000788593
0.000788046
0.000787517
0.000787004
0.000786506
0.000786021
0.000785548
0.000785086
0.000784633
0.000784187
0.000783749
0.000783317
0.00078289
0.000782466
0.000782045
0.000781626
0.000781208
0.00078079
0.000780369
0.000779946
0.000779519
0.000779086
0.000778645
0.000778195
0.000777732
0.000777253
0.000776754
0.00077623
0.000775674
0.000775078
0.000774431
0.000773718
0.000772919
0.000772007
0.000770949
0.000769693
0.00076817
0.00076628
0.000763876
0.000760923
0.000169484
0.00041913
0.000624049
0.000768799
0.000870567
0.000945148
0.0010038
0.00105396
0.00110013
0.0011447
0.00118856
0.00123168
0.00127349
0.0013132
0.00134993
0.00138287
0.00141124
0.0014344
0.0014518
0.00146303
0.00146778
0.00146591
0.00145745
0.0014426
0.00142181
0.00139574
0.0013653
0.00133165
0.00129613
0.00126018
0.00122527
0.00119274
0.00116371
0.00113899
0.00111906
0.00110406
0.00109387
0.00108773
0.00108365
0.00108053
0.00107782
0.00107546
0.00107391
0.0010741
0.00107736
0.00108521
0.00109924
0.00112083
0.00115101
0.00119031
0.00123857
0.0012951
0.00135873
0.00142731
0.0014992
0.00157165
0.00164159
0.00170844
0.00177098
0.00182807
0.00187871
0.00192204
0.00195742
0.00198439
0.00200272
0.00201238
0.00201349
0.00200633
0.00199134
0.00196902
0.00193998
0.00190491
0.00186452
0.00181958
0.00177087
0.00171918
0.00166533
0.0016101
0.00155427
0.0014986
0.00144377
0.00139046
0.00133925
0.00129063
0.00124501
0.00120271
0.00116393
0.00112875
0.00109716
0.00106904
0.00104419
0.00102235
0.00100319
0.000986357
0.000971512
0.000958312
0.000946455
0.000935679
0.000925774
0.000916582
0.00090799
0.000899924
0.000892341
0.000885218
0.000878546
0.000872321
0.000866539
0.000861194
0.000856278
0.000851777
0.000847672
0.000843944
0.000840567
0.000837517
0.000834769
0.000832295
0.00083007
0.00082807
0.000826269
0.000824639
0.000823163
0.000821821
0.000820601
0.000819486
0.000818465
0.000817526
0.00081666
0.000815859
0.000815113
0.000814418
0.000813767
0.000813155
0.000812578
0.000812033
0.000811516
0.000811025
0.000810556
0.000810108
0.00080968
0.000809268
0.000808872
0.000808491
0.000808122
0.000807765
0.000807418
0.000807081
0.000806752
0.00080643
0.000806115
0.000805805
0.0008055
0.000805198
0.0008049
0.000804605
0.000804311
0.000804017
0.000803725
0.000803431
0.000803136
0.00080284
0.000802539
0.000802235
0.000801925
0.000801608
0.000801281
0.000800944
0.000800593
0.000800224
0.000799833
0.000799416
0.000798963
0.000798467
0.000797915
0.000797292
0.000796578
0.000795747
0.000794764
0.00079358
0.000792129
0.000790424
0.000166248
0.000407649
0.000612297
0.000760365
0.000866095
0.000944399
0.00100634
0.00105933
0.00110787
0.00115433
0.0011996
0.00124362
0.00128581
0.00132532
0.00136127
0.00139279
0.00141909
0.00143947
0.00145337
0.00146032
0.00146
0.00145225
0.00143709
0.00141477
0.00138586
0.00135125
0.0013122
0.00127031
0.00122745
0.00118565
0.00114684
0.00111267
0.00108433
0.00106242
0.00104695
0.00103737
0.0010328
0.00103092
0.00102896
0.00102536
0.00101929
0.00101053
0.000999545
0.000987559
0.000976431
0.000968414
0.000965946
0.000971381
0.000986709
0.00101331
0.00105163
0.00110126
0.00116181
0.00123041
0.00130393
0.00138099
0.0014596
0.00153783
0.00161386
0.00168597
0.00175263
0.00181254
0.00186464
0.00190817
0.00194261
0.0019677
0.00198341
0.00198989
0.00198749
0.00197667
0.00195798
0.00193209
0.00189969
0.00186155
0.00181843
0.00177114
0.00172048
0.00166727
0.00161232
0.00155644
0.00150039
0.00144493
0.00139075
0.00133848
0.0012887
0.00124187
0.00119836
0.00115843
0.00112222
0.00108975
0.00106096
0.00103564
0.00101353
0.000994319
0.000977631
0.000963093
0.000950341
0.000939043
0.00092891
0.00091971
0.000911263
0.000903441
0.000896158
0.000889362
0.000883022
0.000877124
0.000871657
0.000866614
0.000861986
0.000857761
0.000853922
0.00085045
0.000847322
0.000844514
0.000842001
0.000839756
0.000837756
0.000835974
0.000834386
0.000832968
0.0008317
0.000830564
0.000829546
0.00082863
0.000827803
0.000827056
0.000826377
0.000825758
0.000825192
0.000824672
0.000824191
0.000823746
0.000823331
0.000822944
0.00082258
0.000822238
0.000821914
0.000821606
0.000821314
0.000821035
0.000820767
0.00082051
0.000820262
0.000820023
0.000819791
0.000819566
0.000819346
0.000819131
0.00081892
0.000818714
0.00081851
0.000818309
0.000818109
0.000817912
0.000817715
0.000817519
0.000817323
0.000817126
0.000816928
0.000816729
0.000816528
0.000816323
0.000816115
0.000815901
0.000815682
0.000815456
0.00081522
0.000814973
0.000814711
0.000814432
0.000814132
0.000813805
0.000813444
0.000813043
0.000812593
0.000812082
0.000811498
0.000810825
0.000810041
0.000809179
0.000161793
0.000393098
0.000594944
0.000744622
0.00085329
0.000934688