/*--------------------------------*- C++ -*----------------------------------*\
  =========                 |
  \\      /  F ield         | OpenFOAM: The Open Source CFD Toolbox
   \\    /   O peration     | Website:  https://openfoam.org
    \\  /    A nd           | Version:  9
     \\/     M anipulation  |
\*---------------------------------------------------------------------------*/
FoamFile
{
    format      ascii;
    class       volScalarField;
    location    "0.01";
    object      p;
}
// * * * * * * * * * * * * * * * * * * * * * * * * * * * * * * * * * * * * * //

dimensions      [0 2 -2 0 0 0 0];

internalField   nonuniform List<scalar> 
12225
(
-0.282049
-2.618
-3.78832
-4.08713
-4.25131
-4.40323
-4.51986
-4.59921
-4.65766
-4.70482
-4.7417
-4.76735
-4.78112
-4.78157
-4.76603
-4.7272
-4.66138
-4.52171
-3.87051
-4.53504
-4.59589
-4.44727
-4.40215
-4.46728
-4.54298
-4.60123
-4.64801
-4.68813
-4.72083
-4.74424
-4.7571
-4.7577
-4.74355
-4.70859
-4.65087
-4.5522
-4.00117
-3.86876
-4.0345
-4.16898
-4.2771
-4.3967
-4.499
-4.57335
-4.62998
-4.67649
-4.71395
-4.74133
-4.75777
-4.76202
-4.75225
-4.7244
-4.67919
-4.61436
-3.85764
-3.77989
-4.06441
-4.24264
-4.33083
-4.42258
-4.51134
-4.58075
-4.63512
-4.68048
-4.71765
-4.74551
-4.76323
-4.76983
-4.76409
-4.74389
-4.71079
-4.66671
-3.87136
-3.89072
-4.13128
-4.27768
-4.34863
-4.42897
-4.513
-4.58147
-4.63569
-4.68114
-4.71891
-4.7481
-4.76804
-4.77815
-4.77782
-4.76632
-4.74535
-4.71777
-3.93506
-3.97716
-4.1536
-4.28205
-4.35654
-4.43511
-4.51608
-4.5837
-4.6381
-4.68403
-4.72278
-4.75373
-4.77644
-4.7907
-4.79647
-4.79397
-4.78506
-4.7731
-3.99508
-4.03361
-4.16901
-4.28965
-4.36899
-4.44477
-4.52136
-4.58751
-4.64207
-4.68864
-4.72861
-4.76167
-4.78761
-4.80657
-4.819
-4.82576
-4.82894
-4.83189
-4.04861
-4.08278
-4.19227
-4.30339
-4.38312
-4.45532
-4.5276
-4.59225
-4.64703
-4.69443
-4.73587
-4.77139
-4.801
-4.82515
-4.84466
-4.86081
-4.87585
-4.8929
-4.09905
-4.13029
-4.22027
-4.3196
-4.39718
-4.46637
-4.53501
-4.59811
-4.65305
-4.7014
-4.74454
-4.78278
-4.81639
-4.84602
-4.87278
-4.89822
-4.92461
-4.9548
-4.14723
-4.17548
-4.24987
-4.33746
-4.41175
-4.47836
-4.54381
-4.60527
-4.66027
-4.70963
-4.75462
-4.79577
-4.83353
-4.86875
-4.90269
-4.93702
-4.97397
-5.01611
-4.19295
-4.21795
-4.28007
-4.35704
-4.42726
-4.49133
-4.55394
-4.61375
-4.66871
-4.71912
-4.76604
-4.81016
-4.85208
-4.89278
-4.93359
-4.97618
-5.02267
-5.0753
-4.23245
-4.25459
-4.3079
-4.37632
-4.44234
-4.50399
-4.56428
-4.62267
-4.67754
-4.7289
-4.77759
-4.82439
-4.87002
-4.91547
-4.96208
-5.01146
-5.06555
-5.12628
-4.26924
-4.28893
-4.33511
-4.39607
-4.45783
-4.51704
-4.57526
-4.63234
-4.68707
-4.73931
-4.78971
-4.83905
-4.88811
-4.9379
-4.98969
-5.04499
-5.10551
-5.17287
-4.30815
-4.32544
-4.36509
-4.41887
-4.47594
-4.53234
-4.58843
-4.64414
-4.69867
-4.75178
-4.80395
-4.8559
-4.90843
-4.96251
-5.01928
-5.08006
-5.14629
-5.21926
-4.34798
-4.36297
-4.39694
-4.44416
-4.49641
-4.54974
-4.60366
-4.65799
-4.71221
-4.76607
-4.81987
-4.87424
-4.92991
-4.98773
-5.04869
-5.11383
-5.18427
-5.26093
-4.38681
-4.39976
-4.42904
-4.47063
-4.51831
-4.56851
-4.62026
-4.6732
-4.72693
-4.7812
-4.83618
-4.89234
-4.95027
-5.01063
-5.07418
-5.14167
-5.21386
-5.2913
-4.42169
-4.43301
-4.4587
-4.49586
-4.53963
-4.58693
-4.63658
-4.68807
-4.74099
-4.79507
-4.85033
-4.90706
-4.96563
-5.0265
-5.09013
-5.15697
-5.22743
-5.30175
-4.44809
-4.4583
-4.48161
-4.51579
-4.55676
-4.60178
-4.6496
-4.69957
-4.75122
-4.8042
-4.8584
-4.91389
-4.97082
-5.02942
-5.08987
-5.15237
-5.21705
-5.28391
-4.45865
-4.46842
-4.49087
-4.52396
-4.56381
-4.60767
-4.6542
-4.70268
-4.75256
-4.80336
-4.8548
-4.90677
-4.95925
-5.01223
-5.06572
-5.1197
-5.1741
-5.22883
-4.44471
-4.45508
-4.47888
-4.51379
-4.5553
-4.60011
-4.64678
-4.69467
-4.74325
-4.79193
-4.84033
-4.88827
-4.93565
-4.98238
-5.02839
-5.07357
-5.11781
-5.16101
-4.41884
-4.43025
-4.45666
-4.49531
-4.54031
-4.58742
-4.63533
-4.68373
-4.732
-4.77945
-4.82573
-4.87069
-4.91425
-4.95629
-4.99669
-5.03535
-5.07216
-5.10704
-4.38388
-4.39644
-4.42692
-4.47196
-4.52218
-4.57223
-4.622
-4.67176
-4.72054
-4.76742
-4.81218
-4.85486
-4.8954
-4.93369
-4.96962
-5.00312
-5.0341
-5.06248
-4.34308
-4.35581
-4.39159
-4.44648
-4.50387
-4.55717
-4.60901
-4.66054
-4.71022
-4.75698
-4.80082
-4.84193
-4.88028
-4.91577
-4.94833
-4.97795
-5.00456
-5.02813
-4.2991
-4.31052
-4.35311
-4.42004
-4.48502
-4.54257
-4.59798
-4.65191
-4.70236
-4.74888
-4.79202
-4.83201
-4.86874
-4.90212
-4.93217
-4.9589
-4.98227
-5.00229
-4.25238
-4.26029
-4.32024
-4.39943
-4.46535
-4.52533
-4.58653
-4.64477
-4.69667
-4.74325
-4.78603
-4.82529
-4.86085
-4.89268
-4.92087
-4.94548
-4.96653
-4.98407
-4.20353
-4.18459
-4.29371
-4.39873
-4.4584
-4.51246
-4.57552
-4.63671
-4.68993
-4.73699
-4.77995
-4.81904
-4.85401
-4.88491
-4.91193
-4.93518
-4.9547
-4.97055
-4.185
-4.05299
-4.21891
-4.38414
-4.46417
-4.52102
-4.58339
-4.6425
-4.69366
-4.73939
-4.78141
-4.81955
-4.85349
-4.88329
-4.90914
-4.93114
-4.94943
-4.96407
-4.33034
-4.01586
-4.06321
-4.21264
-4.34044
-4.44773
-4.54026
-4.61382
-4.67312
-4.72453
-4.77045
-4.81104
-4.84643
-4.87707
-4.9033
-4.92535
-4.94358
-4.95856
-4.35188
-4.81292
-4.7949
-4.62587
-4.53847
-4.56411
-4.6187
-4.66705
-4.70991
-4.7511
-4.79017
-4.82569
-4.85714
-4.88454
-4.90795
-4.92731
-4.94275
-4.956
-0.891151
-2.81008
-3.89399
-4.18171
-4.31349
-4.44636
-4.55551
-4.63266
-4.69223
-4.74413
-4.79037
-4.8308
-4.86578
-4.89584
-4.92121
-4.94175
-4.957
-4.96511
-7.56132
-7.58799
-7.64654
-7.71592
-7.79761
-7.90878
-8.04313
-8.20089
-8.38298
-8.59046
-8.82442
-9.08609
-9.37684
-9.69818
-10.0517
-10.4391
-10.8618
-11.3209
-11.8169
-12.3494
-12.9168
-13.5156
-14.1408
-14.7852
-15.4396
-16.0925
-16.7306
-17.3387
-17.9004
-18.3981
-18.814
-19.1306
-19.3317
-19.404
-19.337
-19.1179
-18.7293
-18.159
-17.3861
-16.4231
-15.2819
-13.976
-12.5211
-10.9351
-9.23841
-7.45312
-5.60255
-3.71058
-1.80091
0.103563
1.9814
3.81312
5.58157
7.27225
8.87339
10.376
11.7737
13.0628
14.2416
15.3108
16.2729
17.1334
17.9008
18.5786
19.1674
19.6727
20.1008
20.4585
20.7523
20.9885
21.1732
21.3122
21.411
21.4745
21.5073
21.5137
21.4975
21.4621
21.4108
21.3462
21.2708
21.1867
21.0959
20.9999
20.9003
20.7981
20.6946
20.5904
20.4865
20.3834
20.2816
20.1815
20.0836
19.988
19.8952
19.8052
19.7182
19.6344
19.5537
19.4762
19.4018
19.3307
19.2627
19.1977
19.1358
19.0768
19.0207
18.9674
18.917
18.8692
18.8239
18.7805
18.739
18.6996
18.662
18.6262
18.5922
18.5599
18.5293
18.5002
18.4726
18.4464
18.4215
18.3979
18.3753
18.3539
18.3334
18.3138
18.295
18.277
18.2597
18.2431
18.2271
18.2116
18.1967
18.1822
18.1681
18.1545
18.1411
18.1281
18.1154
18.103
18.0908
18.0788
18.067
18.0554
18.0439
18.0326
18.0214
18.0103
17.9993
17.9884
17.9776
17.9669
17.9564
17.946
17.9357
17.9256
17.9158
17.9062
17.897
17.8882
17.88
17.8725
17.866
17.8607
17.8569
17.8551
17.856
17.8603
17.8692
17.8843
17.9076
17.9425
17.9936
18.068
18.1779
18.3386
18.5913
18.9111
-7.39719
-7.44751
-7.49757
-7.55328
-7.62943
-7.72988
-7.85356
-8.00129
-8.17447
-8.37418
-8.60164
-8.85837
-9.14627
-9.4676
-9.82491
-10.2208
-10.6578
-11.138
-11.6626
-12.2314
-12.8428
-13.4932
-14.1766
-14.8849
-15.6074
-16.3314
-17.0421
-17.7228
-18.3555
-18.921
-19.3996
-19.7715
-20.0172
-20.1179
-20.0566
-19.821
-19.407
-18.8103
-18.049
-17.1155
-16.0106
-14.7422
-13.3229
-11.7691
-10.0998
-8.33653
-6.50215
-4.62026
-2.71448
-0.807757
1.07827
2.92381
4.71135
6.42597
8.05547
9.59039
11.024
12.3521
13.5728
14.686
15.6929
16.5956
17.3967
18.1018
18.7175
19.2501
19.7057
20.0906
20.4111
20.6734
20.8833
21.0464
21.168
21.2531
21.3062
21.3316
21.333
21.314
21.2776
21.2268
21.1639
21.0913
21.0108
20.9242
20.833
20.7384
20.6416
20.5435
20.4449
20.3465
20.2489
20.1526
20.0579
19.9653
19.8749
19.7872
19.7022
19.6201
19.5409
19.4647
19.3916
19.3215
19.2544
19.1903
19.1291
19.0708
19.0152
18.9624
18.912
18.864
18.8183
18.7749
18.7338
18.6947
18.6577
18.6225
18.589
18.5572
18.527
18.4983
18.4711
18.4451
18.4204
18.3969
18.3745
18.3531
18.3326
18.3131
18.2944
18.2764
18.2592
18.2426
18.2266
18.2111
18.1962
18.1817
18.1677
18.154
18.1407
18.1278
18.1151
18.1026
18.0905
18.0785
18.0667
18.0551
18.0436
18.0322
18.021
18.0099
17.9989
17.988
17.9773
17.9666
17.956
17.9456
17.9353
17.9252
17.9153
17.9057
17.8964
17.8876
17.8793
17.8718
17.8651
17.8596
17.8556
17.8535
17.854
17.8578
17.866
17.88
17.9018
17.9343
17.9817
18.0497
18.1485
18.2883
18.5003
18.7591
-7.1283
-7.2352
-7.32431
-7.3957
-7.47646
-7.57858
-7.70572
-7.86043
-8.045
-8.26143
-8.51165
-8.79767
-9.1216
-9.48555
-9.89149
-10.341
-10.8352
-11.3741
-11.9568
-12.581
-13.243
-13.9378
-14.6585
-15.3966
-16.1421
-16.8833
-17.6069
-18.2982
-18.9412
-19.5189
-20.0135
-20.407
-20.6815
-20.8191
-20.8025
-20.6167
-20.2523
-19.7041
-18.9727
-18.0588
-16.9673
-15.7069
-14.2907
-12.7352
-11.0598
-9.28637
-7.43808
-5.53905
-3.6134
-1.68456
0.225333
2.09607
3.90979
5.65126
7.30808
8.87069
10.3323
11.6887
12.9379
14.0797
15.1152
16.047
16.879
17.6161
18.2635
18.8268
19.312
19.7253
20.0729
20.3608
20.5948
20.7806
20.9235
21.0283
21.0998
21.1422
21.1593
21.1548
21.1318
21.0933
21.0417
20.9795
20.9085
20.8306
20.7474
20.6601
20.57
20.478
20.385
20.2917
20.1988
20.1067
20.0159
19.9268
19.8397
19.7549
19.6726
19.593
19.5161
19.4419
19.3707
19.3023
19.2368
19.1741
19.1143
19.0571
19.0027
18.9508
18.9014
18.8543
18.8096
18.7672
18.7269
18.6885
18.652
18.6173
18.5842
18.5529
18.523
18.4946
18.4676
18.4419
18.4175
18.3942
18.372
18.3508
18.3306
18.3112
18.2927
18.2749
18.2578
18.2413
18.2254
18.2101
18.1953
18.1809
18.1669
18.1534
18.1401
18.1272
18.1146
18.1022
18.09
18.0781
18.0663
18.0547
18.0433
18.032
18.0208
18.0097
17.9987
17.9878
17.9771
17.9664
17.9558
17.9454
17.9351
17.9249
17.915
17.9054
17.8961
17.8872
17.8788
17.8711
17.8643
17.8587
17.8544
17.8521
17.8522
17.8554
17.8628
17.8757
17.8959
17.9259
17.9694
18.0308
18.1178
18.236
18.4003
18.5727
-6.94073
-7.09042
-7.22019
-7.32265
-7.42767
-7.55115
-7.69941
-7.87637
-8.08518
-8.32855
-8.60888
-8.92837
-9.28908
-9.69285
-10.1412
-10.6351
-11.175
-11.7606
-12.3903
-13.062
-13.772
-14.5154
-15.286
-16.0757
-16.8749
-17.6722
-18.4543
-19.2058
-19.91
-20.5483
-21.1015
-21.5495
-21.8726
-22.0518
-22.0695
-21.9108
-21.5657
-21.0276
-20.2939
-19.3659
-18.2493
-16.9544
-15.4954
-13.8903
-12.16
-10.3278
-8.41853
-6.45782
-4.47118
-2.48332
-0.517405
1.40553
3.26709
5.05179
6.74727
8.34417
9.83609
11.2192
12.4919
13.6545
14.7087
15.6587
16.5094
17.2652
17.9308
18.512
19.0146
19.4449
19.809
20.1127
20.362
20.5623
20.719
20.837
20.9209
20.975
21.0031
21.009
20.9957
20.9663
20.9233
20.869
20.8056
20.7348
20.6582
20.5772
20.493
20.4065
20.3187
20.2302
20.1418
20.054
19.9671
19.8817
19.7981
19.7165
19.6372
19.5603
19.4859
19.4142
19.3451
19.2788
19.2151
19.1542
19.0959
19.0402
18.9871
18.9365
18.8882
18.8422
18.7985
18.7569
18.7173
18.6796
18.6437
18.6097
18.5773
18.5465
18.5172
18.4893
18.4628
18.4376
18.4136
18.3907
18.3688
18.3479
18.328
18.3089
18.2906
18.273
18.256
18.2397
18.224
18.2088
18.1941
18.1799
18.166
18.1525
18.1394
18.1266
18.114
18.1017
18.0896
18.0777
18.066
18.0544
18.043
18.0317
18.0206
18.0095
17.9985
17.9877
17.9769
17.9662
17.9556
17.9452
17.9349
17.9247
17.9147
17.905
17.8957
17.8867
17.8782
17.8704
17.8634
17.8574
17.8529
17.8501
17.8495
17.852
17.8583
17.8696
17.8877
17.9144
17.9528
18.0063
18.0795
18.1745
18.2939
18.3986
-6.93444
-7.11115
-7.26823
-7.39525
-7.5227
-7.66762
-7.83721
-8.03603
-8.26779
-8.53566
-8.84248
-9.19084
-9.58312
-10.0214
-10.5074
-11.0424
-11.6268
-12.2606
-12.9426
-13.6706
-14.4415
-15.2503
-16.0908
-16.9551
-17.833
-18.7126
-19.5795
-20.4175
-21.208
-21.9308
-22.5644
-23.0868
-23.4757
-23.7101
-23.7705
-23.6408
-23.3098
-22.7699
-22.0178
-21.0555
-19.89
-18.533
-17.0008
-15.3136
-13.4947
-11.5696
-9.56552
-7.51034
-5.43168
-3.35616
-1.30852
0.689032
2.61735
4.46071
6.2069
7.84713
9.37574
10.7898
12.0885
13.2732
14.3469
15.3148
16.1818
16.9527
17.633
18.2285
18.7454
19.1898
19.5676
19.885
20.1475
20.3607
20.5298
20.6597
20.7549
20.8197
20.8579
20.8733
20.8689
20.8478
20.8125
20.7655
20.7089
20.6444
20.5737
20.4982
20.4191
20.3374
20.2542
20.17
20.0855
20.0014
19.9181
19.836
19.7555
19.6769
19.6003
19.5259
19.454
19.3845
19.3176
19.2532
19.1914
19.1322
19.0755
19.0214
18.9697
18.9203
18.8733
18.8284
18.7858
18.7451
18.7064
18.6696
18.6346
18.6013
18.5696
18.5395
18.5108
18.4835
18.4575
18.4327
18.4091
18.3866
18.3651
18.3445
18.3249
18.3061
18.288
18.2706
18.2539
18.2378
18.2223
18.2073
18.1927
18.1786
18.1649
18.1515
18.1385
18.1257
18.1133
18.101
18.089
18.0772
18.0655
18.054
18.0426
18.0314
18.0202
18.0092
17.9983
17.9874
17.9766
17.9659
17.9554
17.9449
17.9345
17.9243
17.9143
17.9046
17.8951
17.886
17.8773
17.8693
17.862
17.8558
17.8508
17.8474
17.8461
17.8476
17.8525
17.862
17.8773
17.9002
17.9328
17.9773
18.0362
18.1083
18.1894
18.2448
-7.11488
-7.29793
-7.46449
-7.60508
-7.74749
-7.90787
-8.0936
-8.30967
-8.56024
-8.84899
-9.17928
-9.55422
-9.97671
-10.4493
-10.9743
-11.5532
-12.1872
-12.8763
-13.6199
-14.4162
-15.2621
-16.1529
-17.0823
-18.042
-19.0215
-20.0079
-20.9857
-21.9368
-22.8407
-23.6747
-24.4143
-25.0343
-25.5095
-25.8155
-25.9301
-25.8351
-25.5179
-24.9701
-24.1884
-23.1756
-21.9404
-20.4969
-18.8641
-17.065
-15.126
-13.0756
-10.9443
-8.76267
-6.56135
-4.36951
-2.21414
-0.119115
1.89543
3.81344
5.62304
7.31624
8.88852
10.3383
11.6662
12.8752
13.9704
14.9571
15.8404
16.6264
17.3211
17.9308
18.4617
18.92
19.3118
19.6429
19.9191
20.1457
20.3279
20.4704
20.5778
20.6541
20.7034
20.7292
20.7346
20.7226
20.6959
20.6568
20.6075
20.5498
20.4855
20.4158
20.3422
20.2656
20.187
20.1072
20.0269
19.9466
19.8669
19.7882
19.7108
19.6351
19.5613
19.4896
19.4201
19.353
19.2882
19.2259
19.166
19.1086
19.0536
19.001
18.9508
18.9028
18.857
18.8134
18.7719
18.7323
18.6946
18.6587
18.6246
18.5921
18.5611
18.5317
18.5036
18.4769
18.4515
18.4272
18.4041
18.382
18.3609
18.3407
18.3214
18.3029
18.2851
18.268
18.2516
18.2357
18.2204
18.2055
18.1911
18.1772
18.1636
18.1504
18.1374
18.1248
18.1124
18.1003
18.0883
18.0766
18.065
18.0535
18.0422
18.031
18.0199
18.0089
17.9979
17.9871
17.9763
17.9656
17.955
17.9445
17.9342
17.9239
17.9138
17.904
17.8944
17.8851
17.8763
17.868
17.8604
17.8537
17.8482
17.8442
17.842
17.8422
17.8456
17.8528
17.8651
17.8836
17.9098
17.9449
17.9895
18.0403
18.0898
18.1083
-7.42212
-7.59693
-7.75982
-7.90492
-8.0556
-8.22595
-8.42314
-8.65243
-8.91845
-9.22542
-9.57732
-9.9779
-10.4307
-10.939
-11.5057
-12.1329
-12.8224
-13.575
-14.3904
-15.2673
-16.2029
-17.1929
-18.2308
-19.3081
-20.4137
-21.5336
-22.6509
-23.7454
-24.7938
-25.77
-26.6457
-27.3913
-27.9773
-28.3752
-28.5589
-28.5073
-28.2066
-27.6472
-26.8261
-25.7478
-24.4233
-22.8696
-21.1093
-19.169
-17.0786
-14.8705
-12.5786
-10.2374
-7.88105
-5.54224
-3.25102
-1.0336
1.08843
3.09854
4.98526
6.7417
8.36497
9.85539
11.2161
12.4525
13.5704
14.5759
15.4759
16.277
16.9861
17.6097
18.1545
18.6267
19.0324
19.3776
19.6679
19.9085
20.1044
20.2605
20.3811
20.4702
20.5318
20.5692
20.5856
20.584
20.5671
20.5371
20.4962
20.4463
20.3892
20.3262
20.2587
20.1878
20.1145
20.0395
19.9637
19.8876
19.8118
19.7367
19.6628
19.5903
19.5195
19.4506
19.3837
19.319
19.2566
19.1964
19.1386
19.0831
19.0299
18.9789
18.9303
18.8838
18.8394
18.7971
18.7567
18.7183
18.6817
18.6468
18.6135
18.5819
18.5518
18.5231
18.4957
18.4697
18.4448
18.4212
18.3985
18.3769
18.3563
18.3365
18.3176
18.2994
18.2819
18.2651
18.2489
18.2333
18.2182
18.2036
18.1894
18.1756
18.1621
18.149
18.1363
18.1237
18.1115
18.0994
18.0875
18.0759
18.0643
18.0529
18.0417
18.0305
18.0194
18.0084
17.9975
17.9867
17.9759
17.9652
17.9546
17.9441
17.9337
17.9234
17.9132
17.9032
17.8935
17.8841
17.875
17.8665
17.8585
17.8514
17.8452
17.8404
17.8372
17.8361
17.8376
17.8424
17.8513
17.8651
17.8847
17.9103
17.9411
17.9729
17.9964
17.9868
-7.78818
-7.94638
-8.09768
-8.24103
-8.39506
-8.57146
-8.77697
-9.01705
-9.29673
-9.62082
-9.99396
-10.4206
-10.9052
-11.4517
-12.0637
-12.7443
-13.4958
-14.32
-15.2172
-16.1866
-17.2262
-18.3317
-19.4972
-20.7139
-21.9703
-23.2514
-24.5387
-25.8093
-27.0366
-28.1901
-29.2363
-30.1399
-30.8654
-31.3787
-31.6488
-31.6515
-31.3712
-30.7974
-29.928
-28.7698
-27.3372
-25.6513
-23.7386
-21.63
-19.3594
-16.9629
-14.4785
-11.9448
-9.4003
-6.88231
-4.42507
-2.05821
0.194505
2.31555
4.29406
6.12448
7.80632
9.34342
10.7416
12.0074
13.1487
14.1737
15.0904
15.9065
16.6296
17.2668
17.825
18.3107
18.7301
19.0892
19.3935
19.6483
19.8584
20.0286
20.163
20.2658
20.3405
20.3907
20.4193
20.4293
20.4232
20.4035
20.3722
20.3313
20.2824
20.227
20.1666
20.1022
20.0348
19.9654
19.8946
19.8232
19.7518
19.6807
19.6105
19.5415
19.474
19.4081
19.3441
19.2821
19.2222
19.1644
19.1087
19.0553
19.004
18.9549
18.9079
18.863
18.8202
18.7792
18.7402
18.703
18.6675
18.6337
18.6015
18.5708
18.5415
18.5137
18.4871
18.4617
18.4376
18.4145
18.3924
18.3714
18.3512
18.3319
18.3133
18.2955
18.2784
18.2619
18.246
18.2307
18.2158
18.2014
18.1874
18.1738
18.1605
18.1476
18.1349
18.1225
18.1104
18.0984
18.0867
18.0751
18.0636
18.0523
18.0411
18.0299
18.0189
18.008
17.9971
17.9863
17.9755
17.9648
17.9542
17.9436
17.9331
17.9228
17.9125
17.9024
17.8925
17.8829
17.8736
17.8647
17.8563
17.8487
17.8418
17.8361
17.8318
17.8292
17.8287
17.8309
17.8362
17.8452
17.8581
17.8744
17.8925
17.9074
17.9096
17.8784
-8.15316
-8.29018
-8.4255
-8.56322
-8.71749
-8.8976
-9.10974
-9.35946
-9.65217
-9.99323
-10.388
-10.8417
-11.3596
-11.9465
-12.607
-13.3452
-14.1642
-15.0665
-16.0536
-17.1255
-18.2809
-19.5164
-20.8265
-22.2027
-23.6333
-25.1024
-26.5897
-28.0696
-29.5109
-30.8777
-32.1295
-33.2235
-34.1167
-34.7681
-35.1406
-35.206
-34.9482
-34.3554
-33.4281
-32.1767
-30.6205
-28.7854
-26.7027
-24.4074
-21.937
-19.3308
-16.6298
-13.8768
-11.115
-8.38741
-5.73441
-3.19073
-0.783549
1.46761
3.55245
5.468
7.21783
8.80801
10.2466
11.5439
12.71
13.755
14.6885
15.5194
16.2562
16.9064
17.4776
17.9763
18.409
18.7816
19.0996
19.3684
19.5926
19.777
19.9256
20.0423
20.1308
20.1943
20.2359
20.2583
20.2641
20.2556
20.2349
20.2039
20.1642
20.1174
20.0649
20.0077
19.9471
19.8838
19.8188
19.7527
19.6861
19.6195
19.5535
19.4883
19.4244
19.3619
19.301
19.2419
19.1847
19.1295
19.0762
19.025
18.9759
18.9287
18.8836
18.8405
18.7992
18.7598
18.7222
18.6863
18.6521
18.6194
18.5883
18.5586
18.5303
18.5034
18.4776
18.453
18.4296
18.4072
18.3857
18.3652
18.3456
18.3268
18.3087
18.2913
18.2745
18.2584
18.2428
18.2278
18.2132
18.199
18.1852
18.1718
18.1588
18.146
18.1335
18.1212
18.1092
18.0974
18.0857
18.0742
18.0628
18.0516
18.0404
18.0293
18.0183
18.0074
17.9966
17.9858
17.975
17.9643
17.9536
17.9431
17.9325
17.9221
17.9117
17.9015
17.8914
17.8816
17.872
17.8628
17.854
17.8457
17.8382
17.8315
17.8259
17.8217
17.8192
17.8186
17.8203
17.8244
17.8307
17.8382
17.8446
17.8447
17.8294
17.7816
-8.46589
-8.57956
-8.69687
-8.82677
-8.9795
-9.16198
-9.37979
-9.63846
-9.9437
-10.3014
-10.7176
-11.1985
-11.75
-12.3782
-13.0884
-13.8858
-14.7748
-15.7587
-16.8403
-18.0207
-19.2998
-20.6751
-22.1422
-23.6932
-25.3165
-26.9956
-28.7081
-30.425
-32.11
-33.7198
-35.2053
-36.5145
-37.5949
-38.3971
-38.8771
-39.0028
-38.7611
-38.1395
-37.1434
-35.789
-34.1014
-32.1125
-29.8581
-27.3766
-24.7073
-21.8906
-18.9686
-15.986
-12.9909
-10.033
-7.1613
-4.41853
-1.83711
0.560814
2.76681
4.77998
6.60504
8.25268
9.73524
11.066
12.2581
13.3237
14.2743
15.12
15.8702
16.5333
17.1169
17.6282
18.0736
18.4593
18.7907
19.073
19.3111
19.5094
19.6721
19.8029
19.9053
19.9825
20.0374
20.0728
20.0911
20.0945
20.085
20.0646
20.035
19.9975
19.9536
19.9045
19.8513
19.7949
19.7361
19.6758
19.6145
19.5529
19.4915
19.4306
19.3705
19.3117
19.2542
19.1983
19.1441
19.0916
19.041
18.9922
18.9453
18.9004
18.8572
18.8159
18.7765
18.7387
18.7026
18.6682
18.6353
18.6039
18.574
18.5454
18.5182
18.4922
18.4673
18.4436
18.4209
18.3992
18.3785
18.3586
18.3395
18.3212
18.3036
18.2866
18.2703
18.2546
18.2393
18.2246
18.2103
18.1964
18.1829
18.1697
18.1568
18.1442
18.1319
18.1198
18.1079
18.0962
18.0846
18.0732
18.0619
18.0508
18.0397
18.0287
18.0177
18.0068
17.996
17.9852
17.9745
17.9638
17.9531
17.9424
17.9319
17.9213
17.9109
17.9005
17.8903
17.8802
17.8703
17.8607
17.8514
17.8425
17.8342
17.8265
17.8197
17.8138
17.8091
17.8058
17.8038
17.803
17.803
17.8023
17.7982
17.7854
17.7557
17.6949
-8.68439
-8.77467
-8.87341
-8.99428
-9.14428
-9.32809
-9.55054
-9.81707
-10.1336
-10.5065
-10.9426
-11.4488
-12.0321
-12.6994
-13.4574
-14.3121
-15.2692
-16.3335
-17.5087
-18.7977
-20.2013
-21.7189
-23.347
-25.0788
-26.9029
-28.8021
-30.7521
-32.7196
-34.6619
-36.527
-38.2555
-39.784
-41.0496
-41.9946
-42.5687
-42.7382
-42.4982
-41.8361
-40.7643
-39.3059
-37.4927
-35.3625
-32.9558
-30.3129
-27.4729
-24.4738
-21.355
-18.1608
-14.9419
-11.7552
-8.66044
-5.71016
-2.9433
-0.385214
1.9517
4.06863
5.97437
7.68317
9.21178
10.5773
11.7961
12.8828
13.8507
14.7114
15.4751
16.1508
16.7468
17.2703
17.7282
18.1264
18.4708
18.7663
19.0179
19.2299
19.4064
19.551
19.6672
19.7581
19.8265
19.8751
19.9061
19.9218
19.9241
19.9149
19.8958
19.8682
19.8336
19.7931
19.7478
19.6988
19.6469
19.5928
19.5374
19.4811
19.4246
19.3683
19.3125
19.2576
19.2038
19.1513
19.1003
19.0508
19.003
18.9569
18.9125
18.8698
18.8288
18.7895
18.7519
18.7159
18.6815
18.6487
18.6172
18.5872
18.5586
18.5312
18.5051
18.4801
18.4562
18.4334
18.4115
18.3906
18.3706
18.3513
18.3329
18.3152
18.2981
18.2816
18.2657
18.2504
18.2355
18.2211
18.2072
18.1935
18.1803
18.1673
18.1547
18.1423
18.1302
18.1182
18.1065
18.0949
18.0835
18.0722
18.061
18.0499
18.0389
18.0279
18.017
18.0062
17.9954
17.9846
17.9739
17.9632
17.9525
17.9418
17.9311
17.9205
17.91
17.8995
17.889
17.8787
17.8685
17.8585
17.8487
17.8392
17.8301
17.8214
17.8132
17.8057
17.7988
17.7926
17.787
17.7815
17.7755
17.7671
17.7536
17.7298
17.6882
17.6171
-8.77436
-8.84778
-8.92746
-9.03818
-9.18419
-9.36788
-9.59323
-9.86546
-10.1907
-10.5757
-11.0279
-11.555
-12.1651
-12.8661
-13.6656
-14.571
-15.5891
-16.7261
-17.9871
-19.3763
-20.8962
-22.5475
-24.3281
-26.232
-28.2482
-30.3586
-32.5363
-34.7434
-36.9299
-39.034
-40.9851
-42.7087
-44.1325
-45.1924
-45.8371
-46.0371
-45.7806
-45.0714
-43.9266
-42.3753
-40.4563
-38.2134
-35.691
-32.9312
-29.9714
-26.8447
-23.5841
-20.2289
-16.8294
-13.4481
-10.1518
-7.00321
-4.05426
-1.33763
1.13104
3.35233
5.33841
7.10795
8.68219
10.0822
11.3275
12.4354
13.4207
14.2964
15.0735
15.7619
16.3701
16.9058
17.3758
17.7863
18.1432
18.4516
18.7163
18.9417
19.1317
19.2899
19.4198
19.5242
19.606
19.6677
19.7116
19.7398
19.7541
19.7563
19.7481
19.7308
19.7059
19.6744
19.6376
19.5964
19.5517
19.5044
19.4551
19.4046
19.3533
19.3019
19.2506
19.2
19.1501
19.1012
19.0536
19.0073
18.9625
18.9191
18.8773
18.8371
18.7984
18.7613
18.7257
18.6916
18.659
18.6278
18.5979
18.5693
18.542
18.5159
18.491
18.4671
18.4443
18.4224
18.4015
18.3814
18.3621
18.3436
18.3258
18.3087
18.2922
18.2762
18.2608
18.2459
18.2315
18.2174
18.2038
18.1905
18.1775
18.1648
18.1524
18.1403
18.1283
18.1166
18.105
18.0935
18.0822
18.071
18.06
18.049
18.038
18.0271
18.0163
18.0055
17.9947
17.984
17.9733
17.9625
17.9518
17.9411
17.9304
17.9197
17.909
17.8983
17.8877
17.8771
17.8666
17.8562
17.8459
17.8358
17.8258
17.816
17.8066
17.7973
17.7883
17.7793
17.7702
17.7602
17.7485
17.7331
17.7112
17.6779
17.6264
17.5471
-8.72433
-8.77541
-8.83975
-8.9412
-9.08217
-9.26379
-9.48938
-9.76389
-10.0935
-10.4853
-10.9474
-11.4882
-12.1168
-12.8419
-13.6724
-14.6166
-15.6827
-16.8779
-18.2088
-19.6807
-21.2975
-23.061
-24.9702
-27.0198
-29.1984
-31.4868
-33.855
-36.2602
-38.6452
-40.9397
-43.0634
-44.9332
-46.4707
-47.6086
-48.2967
-48.5094
-48.2419
-47.4979
-46.3004
-44.6845
-42.6955
-40.3834
-37.798
-34.9829
-31.9718
-28.791
-25.4645
-22.0219
-18.5076
-14.9843
-11.5263
-8.20999
-5.10104
-2.24341
0.342644
2.65741
4.71561
6.53986
8.1555
9.58721
10.8573
11.9853
12.9874
13.8778
14.6684
15.3693
15.9895
16.5371
17.0189
17.4416
17.8107
18.1317
18.4091
18.6475
18.8507
19.0223
19.1655
19.2833
19.3784
19.4531
19.5098
19.5504
19.5768
19.5906
19.5935
19.5868
19.5718
19.5497
19.5216
19.4885
19.4514
19.4111
19.3683
19.3238
19.2781
19.2318
19.1854
19.1391
19.0933
19.0483
19.0043
18.9613
18.9196
18.8792
18.8401
18.8025
18.7662
18.7314
18.6979
18.6658
18.635
18.6056
18.5773
18.5503
18.5245
18.4997
18.476
18.4533
18.4316
18.4107
18.3907
18.3715
18.3531
18.3353
18.3183
18.3018
18.2859
18.2705
18.2556
18.2412
18.2271
18.2135
18.2002
18.1872
18.1746
18.1622
18.15
18.1381
18.1263
18.1148
18.1033
18.0921
18.0809
18.0698
18.0589
18.048
18.0371
18.0263
18.0155
18.0048
17.994
17.9833
17.9726
17.9619
17.9511
17.9404
17.9296
17.9188
17.908
17.8972
17.8864
17.8755
17.8647
17.8539
17.843
17.8322
17.8215
17.8107
17.7998
17.7889
17.7777
17.7661
17.7536
17.7394
17.7224
17.7006
17.6712
17.6297
17.57
17.4842
-8.53039
-8.55829
-8.60805
-8.70005
-8.8346
-9.01168
-9.23403
-9.5063
-9.83465
-10.2265
-10.6904
-11.2354
-11.8714
-12.6081
-13.4551
-14.4219
-15.5175
-16.7503
-18.1276
-19.6559
-21.3398
-23.182
-25.1815
-27.3331
-29.6246
-32.035
-34.5315
-37.0672
-39.58
-41.9941
-44.2243
-46.1838
-47.7924
-48.9833
-49.7082
-49.9451
-49.6872
-48.9408
-47.7318
-46.0987
-44.0912
-41.7641
-39.1706
-36.356
-33.3532
-30.1825
-26.857
-23.3946
-19.8312
-16.2273
-12.6648
-9.23227
-6.00797
-3.04595
-0.371837
2.01359
4.12681
5.99343
7.64192
9.09964
10.3909
11.5367
12.5544
13.4586
14.262
14.975
15.607
16.1661
16.6596
17.094
17.4751
17.8082
18.0982
18.3493
18.5654
18.7501
18.9064
19.0374
19.1455
19.2331
19.3025
19.3555
19.3939
19.4193
19.4333
19.4373
19.4324
19.4198
19.4007
19.3761
19.3468
19.3138
19.2778
19.2395
19.1996
19.1587
19.1172
19.0755
19.0341
18.993
18.9527
18.9132
18.8748
18.8374
18.8012
18.7662
18.7324
18.6999
18.6687
18.6387
18.6099
18.5822
18.5557
18.5303
18.506
18.4826
18.4603
18.4388
18.4182
18.3984
18.3794
18.3612
18.3436
18.3266
18.3103
18.2945
18.2792
18.2644
18.2501
18.2361
18.2225
18.2093
18.1964
18.1838
18.1715
18.1593
18.1475
18.1358
18.1242
18.1129
18.1016
18.0905
18.0795
18.0686
18.0577
18.0469
18.0361
18.0254
18.0147
18.004
17.9933
17.9826
17.9719
17.9612
17.9504
17.9396
17.9288
17.9179
17.907
17.896
17.885
17.8739
17.8628
17.8515
17.8402
17.8287
17.8171
17.8053
17.7931
17.7806
17.7673
17.7531
17.7373
17.7192
17.6973
17.6698
17.6338
17.5852
17.5187
17.4275
-8.20615
-8.20637
-8.24177
-8.32445
-8.45077
-8.61987
-8.83423
-9.09831
-9.41817
-9.80142
-10.2569
-10.7944
-11.4242
-12.1568
-13.0027
-13.9721
-15.0746
-16.3193
-17.714
-19.2656
-20.9789
-22.8565
-24.8972
-27.0948
-29.4362
-31.8987
-34.4475
-37.0338
-39.5939
-42.0509
-44.32
-46.315
-47.9573
-49.1813
-49.9398
-50.2096
-49.9818
-49.2661
-48.0887
-46.4894
-44.5205
-42.2394
-39.7014
-36.9522
-34.0215
-30.9226
-27.6585
-24.237
-20.6867
-17.0675
-13.4665
-9.98191
-6.70175
-3.68752
-0.968743
1.45305
3.5954
5.48566
7.1539
8.62871
9.93527
11.0949
12.1255
13.0419
13.8568
14.5811
15.2241
15.7943
16.2989
16.7447
17.1375
17.4826
17.7848
18.0484
18.2771
18.4746
18.6439
18.7877
18.9087
19.0091
19.091
19.1562
19.2065
19.2436
19.2687
19.2833
19.2886
19.2857
19.2758
19.2597
19.2385
19.2129
19.1839
19.1521
19.1183
19.0829
19.0466
19.0097
18.9726
18.9358
18.8993
18.8634
18.8283
18.794
18.7607
18.7285
18.6974
18.6673
18.6383
18.6105
18.5837
18.5579
18.5332
18.5095
18.4867
18.4648
18.4438
18.4236
18.4042
18.3856
18.3676
18.3503
18.3336
18.3175
18.3019
18.2869
18.2722
18.2581
18.2443
18.2308
18.2177
18.2049
18.1924
18.1802
18.1682
18.1564
18.1448
18.1333
18.122
18.1109
18.0998
18.0889
18.078
18.0672
18.0565
18.0458
18.0351
18.0245
18.0138
18.0032
17.9926
17.9819
17.9712
17.9605
17.9497
17.9389
17.928
17.917
17.906
17.8949
17.8836
17.8723
17.8608
17.8492
17.8373
17.8252
17.8128
17.8
17.7866
17.7724
17.7572
17.7405
17.7217
17.6998
17.6736
17.6409
17.5991
17.5444
17.4721
17.3765
-7.76798
-7.73609
-7.75662
-7.8295
-7.9448
-8.10135
-8.30193
-8.5509
-8.85424
-9.21964
-9.65621
-10.1741
-10.7839
-11.4968
-12.3236
-13.2749
-14.3607
-15.5901
-16.9709
-18.5096
-20.2105
-22.0751
-24.1012
-26.2812
-28.6007
-31.0358
-33.5516
-36.0998
-38.6193
-41.0373
-43.2736
-45.2472
-46.8833
-48.1184
-48.9056
-49.2139
-49.0413
-48.3974
-47.3054
-45.8041
-43.9449
-41.7842
-39.3758
-36.7623
-33.9678
-30.9971
-27.8443
-24.5101
-21.0207
-17.439
-13.859
-10.3867
-7.11583
-4.11063
-1.40081
1.01321
3.15023
5.03828
6.70749
8.18598
9.49824
10.665
11.7035
12.6284
13.4522
14.1856
14.8381
15.4181
15.933
16.3894
16.7933
17.1499
17.4641
17.74
17.9813
18.1915
18.3737
18.5305
18.6643
18.7775
18.8719
18.9495
19.0119
19.0606
19.0971
19.1226
19.1383
19.1453
19.1447
19.1376
19.1247
19.107
19.0853
19.0603
19.0328
19.0033
18.9724
18.9406
18.9082
18.8756
18.8432
18.8111
18.7794
18.7485
18.7183
18.6889
18.6605
18.633
18.6064
18.5808
18.5561
18.5323
18.5095
18.4875
18.4663
18.446
18.4264
18.4076
18.3895
18.372
18.3551
18.3389
18.3231
18.3079
18.2931
18.2788
18.2649
18.2513
18.2381
18.2253
18.2127
18.2003
18.1883
18.1764
18.1647
18.1533
18.1419
18.1308
18.1197
18.1088
18.0979
18.0872
18.0765
18.0658
18.0552
18.0446
18.0341
18.0235
18.013
18.0024
17.9918
17.9811
17.9705
17.9597
17.9489
17.9381
17.9271
17.9161
17.905
17.8937
17.8823
17.8707
17.8589
17.8469
17.8345
17.8218
17.8086
17.7948
17.7801
17.7645
17.7474
17.7284
17.7067
17.6815
17.6512
17.6139
17.567
17.507
17.4299
17.3307
-7.27375
-7.20687
-7.21162
-7.27295
-7.3728
-7.51067
-7.69038
-7.91638
-8.19466
-8.53302
-8.94071
-9.42799
-10.0057
-10.6851
-11.4771
-12.3922
-13.4402
-14.6298
-15.9681
-17.4607
-19.1105
-20.9178
-22.8785
-24.9837
-27.2177
-29.5564
-31.9657
-34.4006
-36.8047
-39.112
-41.2504
-43.1463
-44.7305
-45.9426
-46.7358
-47.0971
-47.0015
-46.4619
-45.4999
-44.1512
-42.4624
-40.4852
-38.2675
-35.8449
-33.2325
-30.4258
-27.4123
-24.1912
-20.7937
-17.2913
-13.7867
-10.3908
-7.19689
-4.26546
-1.62155
0.737854
2.83282
4.69078
6.34005
7.80653
9.11261
10.2772
11.3165
12.2442
13.0722
13.811
14.47
15.0573
15.5804
16.0458
16.4594
16.8264
17.1514
17.4386
17.6917
17.9139
18.1082
18.2772
18.4233
18.5486
18.6551
18.7445
18.8185
18.8785
18.9258
18.9618
18.9876
19.0043
19.013
19.0146
19.01
19.0001
18.9858
18.9677
18.9465
18.923
18.8976
18.8709
18.8433
18.8152
18.7868
18.7585
18.7304
18.7027
18.6756
18.6491
18.6234
18.5984
18.5742
18.5508
18.5283
18.5065
18.4855
18.4652