/*--------------------------------*- C++ -*----------------------------------*\
  =========                 |
  \\      /  F ield         | OpenFOAM: The Open Source CFD Toolbox
   \\    /   O peration     | Website:  https://openfoam.org
    \\  /    A nd           | Version:  9
     \\/     M anipulation  |
\*---------------------------------------------------------------------------*/
FoamFile
{
    format      ascii;
    class       surfaceScalarField;
    location    "0.01";
    object      phi;
}
// * * * * * * * * * * * * * * * * * * * * * * * * * * * * * * * * * * * * * //

dimensions      [0 3 -1 0 0 0 0];

internalField   nonuniform List<scalar> 
24170
(
3.1357e-06
5.27107e-08
3.04968e-06
8.60183e-08
2.97396e-06
7.57128e-08
2.90468e-06
6.92848e-08
2.83924e-06
6.54429e-08
2.78174e-06
5.75003e-08
2.73268e-06
4.90584e-08
2.69107e-06
4.16071e-08
2.65556e-06
3.55074e-08
2.62493e-06
3.06371e-08
2.59815e-06
2.67803e-08
2.57438e-06
2.37697e-08
2.55289e-06
2.14822e-08
2.53304e-06
1.98553e-08
2.51419e-06
1.88526e-08
2.49532e-06
1.8866e-08
2.47544e-06
1.98822e-08
2.79042e-08
2.44753e-06
3.45237e-06
1.75938e-08
3.45492e-06
8.34659e-08
3.44864e-06
8.19883e-08
3.43735e-06
8.05783e-08
3.42315e-06
7.96448e-08
3.40567e-06
7.49791e-08
3.38599e-06
6.87357e-08
3.36495e-06
6.26519e-08
3.34333e-06
5.71192e-08
3.32177e-06
5.21998e-08
3.30064e-06
4.79072e-08
3.28016e-06
4.42569e-08
3.26038e-06
4.12561e-08
3.24128e-06
3.89564e-08
3.22277e-06
3.73612e-08
3.20458e-06
3.70629e-08
3.18677e-06
3.76938e-08
4.41579e-08
3.17051e-06
3.66448e-06
1.56301e-08
3.67773e-06
7.02212e-08
3.68493e-06
7.47843e-08
3.68921e-06
7.63016e-08
3.69091e-06
7.79383e-08
3.68971e-06
7.61833e-08
3.68615e-06
7.22947e-08
3.6808e-06
6.79976e-08
3.67409e-06
6.3835e-08
3.66634e-06
5.99476e-08
3.65782e-06
5.64265e-08
3.64872e-06
5.33613e-08
3.63914e-06
5.08278e-08
3.62916e-06
4.89382e-08
3.61874e-06
4.77883e-08
3.60793e-06
4.78715e-08
3.59649e-06
4.91333e-08
5.35694e-08
3.58708e-06
3.92455e-06
1.64711e-08
3.93575e-06
5.90179e-08
3.94236e-06
6.81706e-08
3.94771e-06
7.09539e-08
3.95206e-06
7.35903e-08
3.95488e-06
7.33596e-08
3.95632e-06
7.08553e-08
3.95666e-06
6.76616e-08
3.95606e-06
6.4432e-08
3.95466e-06
6.13452e-08
3.95258e-06
5.85152e-08
3.94988e-06
5.60611e-08
3.94661e-06
5.40929e-08
3.9428e-06
5.27473e-08
3.93842e-06
5.21687e-08
3.93358e-06
5.27146e-08
3.92822e-06
5.44954e-08
5.83213e-08
3.92346e-06
4.20779e-06
1.58033e-08
4.21598e-06
5.08343e-08
4.22153e-06
6.26155e-08
4.22635e-06
6.61339e-08
4.23098e-06
6.89652e-08
4.23484e-06
6.94972e-08
4.23782e-06
6.7876e-08
4.24004e-06
6.54395e-08
4.2416e-06
6.28722e-08
4.24257e-06
6.03786e-08
4.243e-06
5.80851e-08
4.24293e-06
5.61272e-08
4.24239e-06
5.46343e-08
4.24139e-06
5.37509e-08
4.23992e-06
5.36343e-08
4.23809e-06
5.45449e-08
4.23595e-06
5.66356e-08
6.02802e-08
4.23399e-06
4.51043e-06
1.44612e-08
4.51682e-06
4.44479e-08
4.52207e-06
5.73588e-08
4.52665e-06
6.15583e-08
4.53119e-06
6.44266e-08
4.53529e-06
6.53979e-08
4.53876e-06
6.44061e-08
4.54166e-06
6.25372e-08
4.54406e-06
6.04701e-08
4.546e-06
5.84356e-08
4.54752e-06
5.65705e-08
4.54863e-06
5.50184e-08
4.54934e-06
5.39167e-08
4.54969e-06
5.34079e-08
4.54968e-06
5.36416e-08
4.54941e-06
5.4811e-08
4.549e-06
5.70497e-08
6.05487e-08
4.54873e-06
4.83409e-06
1.30932e-08
4.83952e-06
3.90107e-08
4.84474e-06
5.21436e-08
4.84926e-06
5.70378e-08
4.8537e-06
5.99869e-08
4.85785e-06
6.12513e-08
4.86151e-06
6.07427e-08
4.86472e-06
5.93287e-08
4.86753e-06
5.76616e-08
4.86997e-06
5.59979e-08
4.87205e-06
5.4484e-08
4.8738e-06
5.32652e-08
4.87524e-06
5.24798e-08
4.87639e-06
5.22612e-08
4.87729e-06
5.27417e-08
4.87804e-06
5.40637e-08
4.87876e-06
5.63232e-08
5.96322e-08
4.87968e-06
5.18087e-06
1.18041e-08
5.18565e-06
3.42298e-08
5.19075e-06
4.70463e-08
5.19527e-06
5.25198e-08
5.19967e-06
5.55846e-08
5.20386e-06
5.70589e-08
5.20766e-06
5.69418e-08
5.21107e-06
5.59155e-08
5.21415e-06
5.45871e-08
5.21691e-06
5.32344e-08
5.21938e-06
5.20126e-08
5.22158e-06
5.10651e-08
5.22354e-06
5.05254e-08
5.22529e-06
5.05145e-08
5.22688e-06
5.11431e-08
5.22843e-06
5.25133e-08
5.23007e-06
5.46842e-08
5.77276e-08
5.23198e-06
5.55258e-06
1.05654e-08
5.5568e-06
3.00091e-08
5.56168e-06
4.21666e-08
5.56619e-06
4.80045e-08
5.5706e-06
5.11781e-08
5.57486e-06
5.28015e-08
5.57879e-06
5.3003e-08
5.5824e-06
5.23147e-08
5.5857e-06
5.12815e-08
5.58874e-06
5.01937e-08
5.59154e-06
4.92139e-08
5.59412e-06
4.84807e-08
5.59653e-06
4.81189e-08
5.59881e-06
4.8235e-08
5.60104e-06
4.89174e-08
5.60331e-06
5.02356e-08
5.60578e-06
5.22172e-08
5.49086e-08
5.6086e-06
5.95097e-06
9.37609e-09
5.95471e-06
2.62679e-08
5.95933e-06
3.75454e-08
5.96382e-06
4.35104e-08
5.96824e-06
4.67564e-08
5.97257e-06
4.84763e-08
5.97665e-06
4.89244e-08
5.98044e-06
4.85223e-08
5.98398e-06
4.7743e-08
5.98729e-06
4.68772e-08
5.99042e-06
4.60914e-08
5.99338e-06
4.55167e-08
5.99623e-06
4.52663e-08
5.99904e-06
4.54309e-08
6.00188e-06
4.60776e-08
6.00486e-06
4.72498e-08
6.00813e-06
4.89496e-08
5.12059e-08
6.01183e-06
6.37794e-06
8.25058e-09
6.38128e-06
2.29247e-08
6.38564e-06
3.3188e-08
6.39009e-06
3.90593e-08
6.39453e-06
4.23198e-08
6.39892e-06
4.40862e-08
6.40313e-06
4.47069e-08
6.40712e-06
4.45317e-08
6.41091e-06
4.39606e-08
6.41451e-06
4.32712e-08
6.41797e-06
4.2629e-08
6.42134e-06
4.21557e-08
6.42465e-06
4.19503e-08
6.428e-06
4.20874e-08
6.43146e-06
4.26153e-08
6.43515e-06
4.35562e-08
6.43921e-06
4.48934e-08
4.66443e-08
6.44377e-06
5.74174e-06
7.34807e-09
5.7443e-06
2.03599e-08
5.74779e-06
2.97037e-08
5.7515e-06
3.53412e-08
5.75527e-06
3.85574e-08
5.75903e-06
4.03269e-08
5.7627e-06
4.10367e-08
5.76623e-06
4.10017e-08
5.76962e-06
4.05666e-08
5.7729e-06
3.99881e-08
5.77611e-06
3.94261e-08
5.77927e-06
3.89928e-08
5.78244e-06
3.8775e-08
5.7857e-06
3.8834e-08
5.78911e-06
3.92037e-08
5.79277e-06
3.98927e-08
5.79679e-06
4.0873e-08
4.2157e-08
5.80128e-06
6.99912e-06
6.38039e-09
7.00184e-06
1.76427e-08
7.00562e-06
2.59232e-08
7.0098e-06
3.11654e-08
7.01411e-06
3.42437e-08
7.01848e-06
3.5961e-08
7.0228e-06
3.67124e-08
7.02702e-06
3.67794e-08
7.03114e-06
3.64497e-08
7.03518e-06
3.59511e-08
7.03917e-06
3.5432e-08
7.04317e-06
3.49926e-08
7.04724e-06
3.4705e-08
7.05146e-06
3.46162e-08
7.05592e-06
3.47466e-08
7.06072e-06
3.50931e-08
7.06597e-06
3.56195e-08
3.63342e-08
7.07179e-06
8.53187e-06
5.35512e-09
8.53472e-06
1.47936e-08
8.53878e-06
2.18645e-08
8.54342e-06
2.65249e-08
8.54833e-06
2.93381e-08
8.55337e-06
3.09207e-08
8.55844e-06
3.16411e-08
8.56347e-06
3.17466e-08
8.56845e-06
3.14685e-08
8.5734e-06
3.09978e-08
8.57837e-06
3.04645e-08
8.58341e-06
2.99537e-08
8.58859e-06
2.95217e-08
8.59401e-06
2.92009e-08
8.59976e-06
2.89999e-08
8.60594e-06
2.89074e-08
8.61268e-06
2.88839e-08
2.89366e-08
8.62008e-06
1.04003e-05
4.2799e-09
1.04033e-05
1.18209e-08
1.04076e-05
1.75319e-08
1.04127e-05
2.14068e-08
1.04183e-05
2.37931e-08
1.04241e-05
2.51273e-08
1.043e-05
2.57172e-08
1.0436e-05
2.57707e-08
1.0442e-05
2.5465e-08
1.0448e-05
2.49483e-08
1.04541e-05
2.43256e-08
1.04604e-05
2.36637e-08
1.0467e-05
2.3003e-08
1.04738e-05
2.23625e-08
1.04811e-05
2.17425e-08
1.04888e-05
2.11275e-08
1.04972e-05
2.04806e-08
1.98114e-08
1.05064e-05
1.26779e-05
3.15576e-09
1.2681e-05
8.70364e-09
1.26857e-05
1.28986e-08
1.26913e-05
1.57761e-08
1.26975e-05
1.75448e-08
1.27042e-05
1.8485e-08
1.27111e-05
1.88211e-08
1.27181e-05
1.87104e-08
1.27253e-05
1.82784e-08
1.27326e-05
1.76281e-08
1.27401e-05
1.68339e-08
1.27479e-05
1.59423e-08
1.27559e-05
1.49782e-08
1.27643e-05
1.39508e-08
1.27732e-05
1.28554e-08
1.27826e-05
1.16774e-08
1.27927e-05
1.0388e-08
9.00154e-09
1.28035e-05
1.54544e-05
1.96606e-09
1.54577e-05
5.37761e-09
1.54627e-05
7.87984e-09
1.54689e-05
9.54319e-09
1.5476e-05
1.04887e-08
1.54836e-05
1.08702e-08
1.54916e-05
1.08188e-08
1.54999e-05
1.04292e-08
1.55084e-05
9.77486e-09
1.55171e-05
8.91393e-09
1.55261e-05
7.88776e-09
1.55353e-05
6.72119e-09
1.55448e-05
5.42605e-09
1.55548e-05
4.0039e-09
1.55652e-05
2.45004e-09
1.55761e-05
7.5436e-10
1.55876e-05
-1.09947e-09
-3.09228e-09
1.55997e-05
1.88389e-05
6.65299e-10
1.88426e-05
1.70421e-09
1.88482e-05
2.28513e-09
1.88552e-05
2.50638e-09
1.88633e-05
2.42917e-09
1.88721e-05
2.1008e-09
1.88813e-05
1.55367e-09
1.8891e-05
8.08016e-10
1.89008e-05
-1.1529e-10
1.8911e-05
-1.20354e-09
1.89213e-05
-2.44899e-09
1.89319e-05
-3.84881e-09
1.89427e-05
-5.40355e-09
1.89538e-05
-7.11592e-09
1.89653e-05
-8.98967e-09
1.8977e-05
-1.10279e-08
1.89892e-05
-1.32354e-08
-1.55903e-08
1.90017e-05
2.29649e-05
-8.48593e-10
2.29692e-05
-2.60339e-09
2.29757e-05
-4.28701e-09
2.2984e-05
-5.7644e-09
2.29935e-05
-7.02282e-09
2.30037e-05
-8.13792e-09
2.30144e-05
-9.19865e-09
2.30255e-05
-1.02641e-08
2.30368e-05
-1.13736e-08
2.30481e-05
-1.2562e-08
2.30595e-05
-1.38591e-08
2.3071e-05
-1.52855e-08
2.30824e-05
-1.68539e-08
2.30939e-05
-1.85721e-08
2.31053e-05
-2.04435e-08
2.31168e-05
-2.24668e-08
2.31282e-05
-2.4638e-08
-2.69386e-08
2.31395e-05
1.68119e-05
-2.03387e-09
1.68152e-05
-5.94078e-09
1.68203e-05
-9.35402e-09
1.68266e-05
-1.2053e-08
1.68336e-05
-1.40649e-08
1.68411e-05
-1.56164e-08
1.68488e-05
-1.69093e-08
1.68566e-05
-1.80537e-08
1.68644e-05
-1.91277e-08
1.6872e-05
-2.02051e-08
1.68795e-05
-2.13436e-08
1.68868e-05
-2.25797e-08
1.68939e-05
-2.39347e-08
1.69007e-05
-2.54207e-08
1.69073e-05
-2.70426e-08
1.69136e-05
-2.87986e-08
1.69197e-05
-3.06813e-08
-3.26755e-08
1.69254e-05
1.46357e-05
-3.17104e-09
1.46389e-05
-9.16426e-09
1.46438e-05
-1.42466e-08
1.46498e-05
-1.79925e-08
1.46562e-05
-2.05306e-08
1.46629e-05
-2.23287e-08
1.46697e-05
-2.36908e-08
1.46764e-05
-2.47552e-08
1.46829e-05
-2.56437e-08
1.46892e-05
-2.64745e-08
1.46952e-05
-2.73282e-08
1.47009e-05
-2.82508e-08
1.47062e-05
-2.92697e-08
1.47112e-05
-3.04017e-08
1.47158e-05
-3.16538e-08
1.472e-05
-3.30247e-08
1.47238e-05
-3.45067e-08
-3.60869e-08
1.47273e-05
1.27412e-05
-4.24181e-09
1.27444e-05
-1.24112e-08
1.27494e-05
-1.92161e-08
1.27552e-05
-2.37657e-08
1.27612e-05
-2.65771e-08
1.27674e-05
-2.84811e-08
1.27735e-05
-2.9791e-08
1.27794e-05
-3.06411e-08
1.2785e-05
-3.1224e-08
1.27902e-05
-3.17117e-08
1.27951e-05
-3.21998e-08
1.27996e-05
-3.2737e-08
1.28036e-05
-3.3355e-08
1.28073e-05
-3.40742e-08
1.28106e-05
-3.4903e-08
1.28134e-05
-3.58403e-08
1.28157e-05
-3.68783e-08
-3.80054e-08
1.28177e-05
1.10918e-05
-5.13409e-09
1.10952e-05
-1.57604e-08
1.11004e-05
-2.44882e-08
1.11062e-05
-2.94743e-08
1.11119e-05
-3.22829e-08
1.11176e-05
-3.41817e-08
1.11231e-05
-3.53348e-08
1.11283e-05
-3.58667e-08
1.11332e-05
-3.60701e-08
1.11376e-05
-3.61635e-08
1.11417e-05
-3.62445e-08
1.11453e-05
-3.63629e-08
1.11485e-05
-3.6555e-08
1.11513e-05
-3.68436e-08
1.11536e-05
-3.72373e-08
1.11555e-05
-3.77347e-08
1.11569e-05
-3.83281e-08
-3.90071e-08
1.11579e-05
9.65582e-06
-5.74323e-09
9.65936e-06
-1.92976e-08
9.66494e-06
-3.00638e-08
9.67054e-06
-3.50827e-08
9.67602e-06
-3.77539e-08
9.68138e-06
-3.95501e-08
9.68645e-06
-4.04026e-08
9.69111e-06
-4.05196e-08
9.69534e-06
-4.03086e-08
9.69918e-06
-3.99962e-08
9.70259e-06
-3.96631e-08
9.70559e-06
-3.93587e-08
9.70816e-06
-3.91251e-08
9.7103e-06
-3.89872e-08
9.71202e-06
-3.89531e-08
9.71331e-06
-3.90217e-08
9.71416e-06
-3.91845e-08
-3.94305e-08
9.71459e-06
8.40547e-06
-5.85917e-09
8.40978e-06
-2.36091e-08
8.41524e-06
-3.55232e-08
8.4204e-06
-4.024e-08
8.42567e-06
-4.30257e-08
8.43087e-06
-4.47485e-08
8.43564e-06
-4.51733e-08
8.4399e-06
-4.47823e-08
8.4437e-06
-4.41125e-08
8.44707e-06
-4.33651e-08
8.45001e-06
-4.25957e-08
8.4525e-06
-4.18543e-08
8.45456e-06
-4.11864e-08
8.45619e-06
-4.06174e-08
8.4574e-06
-4.0156e-08
8.45818e-06
-3.98019e-08
8.45854e-06
-3.9548e-08
-3.93848e-08
8.45849e-06
7.31536e-06
-3.93107e-09
7.32207e-06
-3.03243e-08
7.32733e-06
-4.07857e-08
7.33201e-06
-4.49167e-08
7.33714e-06
-4.81573e-08
7.34227e-06
-4.98803e-08
7.3469e-06
-4.97947e-08
7.35092e-06
-4.88088e-08
7.35439e-06
-4.75804e-08
7.35731e-06
-4.62863e-08
7.3597e-06
-4.4981e-08
7.36157e-06
-4.37246e-08
7.36294e-06
-4.25643e-08
7.36385e-06
-4.15229e-08
7.3643e-06
-4.06083e-08
7.36432e-06
-3.982e-08
7.36392e-06
-3.91489e-08
-3.85835e-08
7.36312e-06
6.36266e-06
3.47299e-09
6.37331e-06
-4.09708e-08
6.3802e-06
-4.76788e-08
6.3861e-06
-5.08101e-08
6.39179e-06
-5.38486e-08
6.39683e-06
-5.49279e-08
6.4009e-06
-5.38655e-08
6.40411e-06
-5.20186e-08
6.40655e-06
-5.00185e-08
6.40825e-06
-4.79821e-08
6.40924e-06
-4.59772e-08
6.4096e-06
-4.40798e-08
6.40937e-06
-4.23364e-08
6.40861e-06
-4.07635e-08
6.40737e-06
-3.93644e-08
6.40569e-06
-3.81368e-08
6.4036e-06
-3.70677e-08
-3.6132e-08
6.40115e-06
5.53467e-06
1.42694e-08
5.54717e-06
-5.34707e-08
5.55722e-06
-5.7728e-08
5.56591e-06
-5.94993e-08
5.57259e-06
-6.0532e-08
5.57685e-06
-5.91842e-08
5.57874e-06
-5.57602e-08
5.57886e-06
-5.21373e-08
5.57761e-06
-4.87714e-08
5.57526e-06
-4.563e-08
5.57201e-06
-4.2723e-08
5.56802e-06
-4.00898e-08
5.56342e-06
-3.7744e-08
5.55834e-06
-3.56752e-08
5.55284e-06
-3.38668e-08
5.54701e-06
-3.23136e-08
5.54095e-06
-3.10038e-08
-2.98809e-08
5.5347e-06
4.85568e-06
-1.38072e-08
4.85894e-06
-5.67315e-08
4.85997e-06
-5.87503e-08
4.85765e-06
-5.718e-08
4.85428e-06
-5.71676e-08
4.84785e-06
-5.2746e-08
4.83868e-06
-4.65915e-08
4.82732e-06
-4.07847e-08
4.81446e-06
-3.59061e-08
4.80069e-06
-3.1864e-08
4.78648e-06
-2.85087e-08
4.77212e-06
-2.57301e-08
4.75781e-06
-2.34344e-08
4.74367e-06
-2.15383e-08
4.72978e-06
-1.99763e-08
4.7162e-06
-1.8736e-08
4.70304e-06
-1.78404e-08
-1.7768e-08
4.69093e-06
4.18887e-06
4.13214e-06
4.07339e-06
4.01621e-06
3.95904e-06
3.90629e-06
3.8597e-06
3.81892e-06
3.78301e-06
3.75115e-06
3.72264e-06
3.69691e-06
3.67347e-06
3.65194e-06
3.63196e-06
3.61322e-06
3.59538e-06
3.57762e-06
7.16817e-08
-7.16817e-08
9.17049e-08
-2.00232e-08
7.52723e-08
1.64325e-08
3.33602e-08
4.19122e-08
-2.17453e-08
5.51054e-08
-8.61038e-08
6.43586e-08
-1.60939e-07
7.48354e-08
-2.47431e-07
8.64923e-08
-3.47135e-07
9.97038e-08
-4.61701e-07
1.14565e-07
-5.92643e-07
1.30943e-07
-7.41232e-07
1.48589e-07
-9.0842e-07
1.67188e-07
-1.09479e-06
1.8637e-07
-1.3005e-06
2.0571e-07
-1.52523e-06
2.24731e-07
-1.76815e-06
2.42917e-07
-2.02788e-06
2.59736e-07
-2.30255e-06
2.74664e-07
-2.58976e-06
2.87211e-07
-2.88671e-06
2.9695e-07
-3.19024e-06
3.03531e-07
-3.49693e-06
3.06691e-07
-3.80319e-06
3.06254e-07
-4.10532e-06
3.02132e-07
-4.39962e-06
2.94305e-07
-4.68244e-06
2.82813e-07
-4.9502e-06
2.67763e-07
-5.19951e-06
2.49307e-07
-5.42714e-06
2.27632e-07
-5.63009e-06
2.02955e-07
-5.80561e-06
1.75518e-07
-5.9512e-06
1.45592e-07
-6.0647e-06
1.13494e-07
-6.14434e-06
7.96387e-08
-6.18904e-06
4.47021e-08
-6.19825e-06
9.2164e-09
-6.1766e-06
-2.1651e-08
-6.12477e-06
-5.18377e-08
-6.04402e-06
-8.07471e-08
-5.93535e-06
-1.08668e-07
-5.79974e-06
-1.35611e-07
-5.63829e-06
-1.61447e-07
-5.45231e-06
-1.85978e-07
-5.24332e-06
-2.0899e-07
-5.01305e-06
-2.30275e-07
-4.76341e-06
-2.49644e-07
-4.49646e-06
-2.66942e-07
-4.21442e-06
-2.82049e-07
-3.91953e-06
-2.94887e-07
-3.61411e-06
-3.0542e-07
-3.30045e-06
-3.13655e-07
-2.98082e-06
-3.19637e-07
-2.65737e-06
-3.23446e-07
-2.33218e-06
-3.25191e-07
-2.00718e-06
-3.25001e-07
-1.68416e-06
-3.23014e-07
-1.3648e-06
-3.1936e-07
-1.05064e-06
-3.14162e-07
-7.43089e-07
-3.07552e-07
-4.43436e-07
-2.99652e-07
-1.52333e-07
-2.91104e-07
1.30492e-07
-2.82825e-07
4.04741e-07
-2.74248e-07
6.6959e-07
-2.6485e-07
9.2454e-07
-2.5495e-07
1.16926e-06
-2.4472e-07
1.40354e-06
-2.34279e-07
1.62726e-06
-2.23721e-07
1.84038e-06
-2.13121e-07
2.04292e-06
-2.02542e-07
2.23496e-06
-1.92037e-07
2.41661e-06
-1.81654e-07
2.58805e-06
-1.71433e-07
2.74946e-06
-1.61409e-07
2.90107e-06
-1.51612e-07
3.04314e-06
-1.42068e-07
3.17594e-06
-1.32801e-07
3.29977e-06
-1.23829e-07
3.41494e-06
-1.1517e-07
3.52177e-06
-1.06837e-07
3.62062e-06
-9.88438e-08
3.71182e-06
-9.11992e-08
3.79573e-06
-8.39112e-08
3.87271e-06
-7.6985e-08
3.94314e-06
-7.04238e-08
4.00736e-06
-6.42281e-08
4.06576e-06
-5.83962e-08
4.11868e-06
-5.2924e-08
4.16649e-06
-4.78052e-08
4.20952e-06
-4.30314e-08
4.24811e-06
-3.85928e-08
4.28259e-06
-3.44776e-08
4.31326e-06
-3.06733e-08
4.34043e-06
-2.71658e-08
4.36437e-06
-2.39406e-08
4.38535e-06
-2.09822e-08
4.40363e-06
-1.82748e-08
4.41943e-06
-1.58029e-08
4.43298e-06
-1.35505e-08
4.44448e-06
-1.15025e-08
4.45413e-06
-9.64344e-09
4.46209e-06
-7.95891e-09
4.46852e-06
-6.4345e-09
4.47358e-06
-5.05636e-09
4.47739e-06
-3.81073e-09
4.48007e-06
-2.68118e-09
4.48171e-06
-1.64547e-09
4.48236e-06
-6.45408e-10
4.48196e-06
3.97082e-10
4.48048e-06
1.48421e-09
4.47796e-06
2.5194e-09
4.4745e-06
3.45887e-09
4.47021e-06
4.2869e-09
4.46521e-06
5.00638e-09
4.45959e-06
5.61342e-09
4.45349e-06
6.10266e-09
4.44701e-06
6.47736e-09
4.44026e-06
6.74925e-09
4.43333e-06
6.93529e-09
4.42627e-06
7.05437e-09
4.41915e-06
7.12581e-09
4.41198e-06
7.16608e-09
4.40479e-06
7.18832e-09
4.39759e-06
7.20156e-09
4.39038e-06
7.21151e-09
4.38316e-06
7.22154e-09
4.37593e-06
7.23291e-09
4.36868e-06
7.24616e-09
4.36142e-06
7.26134e-09
4.35414e-06
7.27815e-09
4.34684e-06
7.2966e-09
4.33953e-06
7.31642e-09
4.33219e-06
7.33772e-09
4.32483e-06
7.36047e-09
4.31745e-06
7.38474e-09
4.31003e-06
7.41044e-09
4.3026e-06
7.43785e-09
4.29513e-06
7.46682e-09
4.28763e-06
7.49742e-09
4.2801e-06
7.52975e-09
4.27254e-06
7.56382e-09
4.26494e-06
7.5998e-09
4.2573e-06
7.63769e-09
4.24962e-06
7.67767e-09
4.2419e-06
7.71986e-09
4.23414e-06
7.76451e-09
4.22633e-06
7.81193e-09
4.21847e-06
7.86249e-09
4.21055e-06
7.91658e-09
4.20257e-06
7.97472e-09
4.19454e-06
8.03771e-09
4.18643e-06
8.10643e-09
4.17825e-06
8.18193e-09
4.16998e-06
8.26572e-09
4.16162e-06
8.35958e-09
4.15316e-06
8.46592e-09
4.14457e-06
8.58759e-09
4.13584e-06
8.72842e-09
4.12695e-06
8.89325e-09
4.11786e-06
9.08846e-09
4.10854e-06
9.32216e-09
4.09893e-06
9.60516e-09
4.08898e-06
9.95148e-09
4.0786e-06
1.038e-08
4.06768e-06
1.09158e-08
4.05609e-06
1.1593e-08
4.04363e-06
1.24589e-08
4.03005e-06
1.35799e-08
4.015e-06
1.50512e-08
3.99799e-06
1.70131e-08
3.97831e-06
1.96794e-08
3.95492e-06
2.3387e-08
3.92623e-06
2.86889e-08
3.88968e-06
3.65546e-08
3.84104e-06
4.86433e-08
3.77233e-06
6.87099e-08
3.67146e-06
1.00861e-07
3.50097e-06
1.70491e-07
2.48339e-07
3.25263e-06
-7.69487e-08
5.26702e-09
-1.72526e-07
7.55538e-08
-2.8724e-07
1.31147e-07
-4.17533e-07
1.72205e-07
-5.63893e-07
2.01465e-07
-7.24845e-07
2.2531e-07
-8.98376e-07
2.48366e-07
-1.08432e-06
2.7244e-07
-1.28274e-06
2.98119e-07
-1.49361e-06
3.25439e-07
-1.71672e-06
3.5405e-07
-1.9515e-06
3.83366e-07
-2.19698e-06
4.12668e-07
-2.45176e-06
4.41157e-07
-2.71405e-06
4.67997e-07
-2.98167e-06
4.92353e-07
-3.25219e-06
5.13434e-07
-3.52298e-06
5.30526e-07
-3.79135e-06
5.43033e-07
-4.05464e-06
5.505e-07
-4.31031e-06
5.52626e-07
-4.55605e-06
5.49263e-07
-4.78976e-06
5.40409e-07
-5.00969e-06
5.26181e-07
-5.21435e-06
5.06793e-07
-5.40257e-06
4.82524e-07
-5.57346e-06
4.53697e-07
-5.72635e-06
4.20658e-07
-5.86081e-06
3.83762e-07
-5.97654e-06
3.43365e-07
-6.07341e-06
2.99826e-07
-6.15141e-06
2.53516e-07
-6.21065e-06
2.04835e-07
-6.25137e-06
1.54208e-07
-6.27384e-06
1.02108e-07
-6.27822e-06
4.90848e-08
-6.26396e-06
-5.04001e-09
-6.22602e-06
-5.95914e-08
-6.16304e-06
-1.14818e-07
-6.07387e-06
-1.69921e-07
-5.95831e-06
-2.24221e-07
-5.8168e-06
-2.77123e-07
-5.65018e-06
-3.28063e-07
-5.45966e-06
-3.76507e-07
-5.24669e-06
-4.21956e-07
-5.013e-06
-4.63963e-07
-4.7605e-06
-5.02141e-07
-4.49127e-06
-5.36177e-07
-4.20748e-06
-5.65838e-07
-3.91139e-06
-5.90977e-07
-3.60528e-06
-6.11533e-07
-3.29139e-06
-6.27536e-07
-2.97194e-06
-6.39096e-07
-2.64899e-06
-6.46395e-07
-2.3245e-06
-6.49677e-07
-2.00027e-06
-6.49231e-07
-1.67791e-06
-6.45376e-07
-1.35883e-06
-6.3844e-07
-1.04424e-06
-6.28757e-07
-7.35128e-07
-6.1666e-07
-4.3225e-07
-6.0253e-07
-1.36481e-07
-5.86874e-07
1.50816e-07
-5.70122e-07
4.28906e-07
-5.52338e-07
6.97658e-07
-5.33601e-07
9.56837e-07
-5.1413e-07
1.20625e-06
-4.94133e-07
1.44576e-06
-4.73788e-07
1.67529e-06
-4.53249e-07
1.89482e-06
-4.32652e-07
2.10439e-06
-4.12114e-07
2.30409e-06
-3.91738e-07
2.49405e-06
-3.71613e-07
2.67443e-06
-3.51816e-07
2.84544e-06
-3.32415e-07
3.00729e-06
-3.13466e-07
3.16024e-06
-2.95017e-07
3.30455e-06
-2.77107e-07
3.44049e-06
-2.5977e-07
3.56835e-06
-2.4303e-07
3.68842e-06
-2.26909e-07
3.801e-06
-2.1142e-07
3.90638e-06
-1.96576e-07
4.00485e-06
-1.82383e-07
4.09671e-06
-1.68845e-07
4.18225e-06
-1.55962e-07
4.26175e-06
-1.43731e-07
4.3355e-06
-1.32147e-07
4.40378e-06
-1.21202e-07
4.46686e-06
-1.10885e-07
4.52501e-06
-1.01183e-07
4.5785e-06
-9.20827e-08
4.62759e-06
-8.35656e-08
4.67253e-06
-7.56136e-08
4.71357e-06
-6.82063e-08
4.75095e-06
-6.13217e-08
4.7849e-06
-5.49366e-08
4.81565e-06
-4.9027e-08
4.84342e-06
-4.35681e-08
4.8684e-06
-3.85349e-08
4.8908e-06
-3.39022e-08
4.91081e-06
-2.96451e-08
4.92859e-06
-2.57386e-08
4.94431e-06
-2.21584e-08
4.95813e-06
-1.88804e-08
4.9702e-06
-1.58804e-08
4.98066e-06
-1.31341e-08
4.98963e-06
-1.06161e-08
4.99729e-06
-8.31213e-09
5.00391e-06
-6.21621e-09
5.00968e-06
-4.29132e-09
5.01471e-06
-2.50368e-09
5.019e-06
-8.35311e-10
5.02258e-06
7.01998e-10
5.02547e-06
2.12161e-09
5.02766e-06
3.42339e-09
5.02916e-06
4.60545e-09
5.02996e-06
5.67044e-09
5.03009e-06
6.62457e-09
5.02955e-06
7.4743e-09
5.02838e-06
8.22838e-09
5.0266e-06
8.89728e-09
5.02428e-06
9.49178e-09
5.02144e-06
1.00224e-08
5.01815e-06
1.04988e-08
5.01443e-06
1.09293e-08
5.01033e-06
1.13207e-08
5.00588e-06
1.16789e-08
5.00112e-06
1.20084e-08
4.99607e-06
1.2313e-08
4.99075e-06
1.25958e-08
4.98519e-06
1.28594e-08
4.9794e-06
1.3106e-08
4.9734e-06
1.33376e-08
4.9672e-06
1.35559e-08
4.96083e-06
1.37624e-08
4.95428e-06
1.39585e-08
4.94757e-06
1.41454e-08
4.94071e-06
1.43244e-08
4.93371e-06
1.44964e-08
4.92658e-06
1.46624e-08
4.91932e-06
1.48233e-08
4.91194e-06
1.498e-08
4.90445e-06
1.51332e-08
4.89684e-06
1.52837e-08
4.88913e-06
1.54323e-08
4.88131e-06
1.55797e-08
4.8734e-06
1.57266e-08
4.86539e-06
1.5874e-08
4.85728e-06
1.60225e-08
4.84908e-06
1.61734e-08
4.84079e-06
1.63278e-08
4.83241e-06
1.64872e-08
4.82394e-06
1.66534e-08
4.81538e-06
1.68287e-08
4.80672e-06
1.7016e-08
4.79797e-06
1.72186e-08
4.78911e-06
1.74412e-08
4.78015e-06
1.76893e-08
4.77108e-06
1.79701e-08
4.76187e-06
1.82928e-08
4.75252e-06
1.8669e-08
4.74302e-06
1.91141e-08
4.73332e-06
1.96479e-08
4.7234e-06
2.02967e-08
4.71322e-06
2.10954e-08
4.70273e-06
2.20909e-08
4.69184e-06
2.33477e-08
4.68046e-06
2.49548e-08
4.66847e-06
2.7039e-08
4.6557e-06
2.97841e-08
4.64192e-06
3.34636e-08
4.6268e-06
3.85036e-08
4.60992e-06
4.55719e-08
4.59062e-06
5.58564e-08
4.56808e-06
7.11784e-08
4.54068e-06
9.61148e-08
4.50645e-06
1.35087e-07
4.46077e-06
2.16172e-07
3.36226e-07
4.37288e-06
-1.66366e-07
1.71633e-07
-3.36313e-07
2.455e-07
-5.07575e-07
3.0241e-07
-6.8351e-07
3.4814e-07
-8.67704e-07
3.8566e-07
-1.06095e-06
4.18552e-07
-1.26238e-06
4.49803e-07
-1.47104e-06
4.81095e-07
-1.68599e-06
5.13066e-07
-1.90624e-06
5.45693e-07
-2.13072e-06
5.78533e-07
-2.35825e-06
6.10899e-07
-2.58756e-06
6.41976e-07
-2.8173e-06
6.70901e-07
-3.04614e-06
6.96831e-07
-3.27277e-06
7.18986e-07
-3.49603e-06
7.36694e-07
-3.71492e-06
7.49415e-07
-3.92864e-06
7.56753e-07
-4.1366e-06
7.5846e-07
-4.33839e-06
7.54416e-07
-4.53373e-06
7.44603e-07
-4.72241e-06
7.29084e-07
-4.90419e-06
7.07962e-07
-5.07875e-06
6.81358e-07
-5.24562e-06
6.49393e-07
-5.4041e-06
6.12175e-07
-5.55324e-06
5.698e-07
-5.69184e-06
5.22362e-07
-5.81844e-06
4.69964e-07
-5.93136e-06
4.12742e-07
-6.02872e-06
3.50883e-07
-6.10853e-06
2.84646e-07
-6.16871e-06
2.14379e-07
-6.20712e-06
1.40524e-07
-6.22163e-06
6.35959e-08
-6.21083e-06
-1.58403e-08
-6.17332e-06
-9.71071e-08
-6.10881e-06
-1.79323e-07
-6.01722e-06
-2.6151e-07
-5.89877e-06
-3.42668e-07
-5.75407e-06
-4.21828e-07
-5.58406e-06
-4.9807e-07
-5.39004e-06
-5.7053e-07
-5.17357e-06
-6.38421e-07
-4.93649e-06
-7.01046e-07
-4.68082e-06
-7.57815e-07
-4.40874e-06
-8.08256e-07
-4.12255e-06
-8.52026e-07
-3.82461e-06
-8.8892e-07
-3.51727e-06
-9.18872e-07
-3.20285e-06
-9.41955e-07
-2.88358e-06
-9.5837e-07
-2.56154e-06
-9.68431e-07
-2.23867e-06
-9.72547e-07
-1.91671e-06
-9.71194e-07
-1.59719e-06
-9.64894e-07
-1.28144e-06
-9.54187e-07
-9.70582e-07
-9.39616e-07
-6.65522e-07
-9.2172e-07
-3.67012e-07
-9.01039e-07
-7.58402e-08
-8.78046e-07
2.07137e-07
-8.53099e-07
4.81355e-07
-8.26556e-07
7.46512e-07
-7.98759e-07
1.00238e-06
-7.69995e-07
1.24878e-06
-7.40534e-07
1.48561e-06
-7.10614e-07
1.7128e-06
-6.80445e-07
1.93036e-06
-6.50214e-07
2.13833e-06
-6.20084e-07
2.33679e-06
-5.902e-07
2.52587e-06
-5.60689e-07
2.70572e-06
-5.31663e-07
2.87652e-06
-5.03218e-07
3.03849e-06
-4.75435e-07
3.19186e-06
-4.48385e-07
3.33688e-06
-4.22124e-07
3.4738e-06
-3.96699e-07
3.60292e-06
-3.72145e-07
3.7245e-06
-3.4849e-07
3.83883e-06
-3.25753e-07
3.9462e-06
-3.03946e-07
4.0469e-06
-2.83076e-07
4.14119e-06
-2.63142e-07
4.22937e-06
-2.44143e-07
4.31171e-06
-2.26069e-07
4.38848e-06
-2.08911e-07
4.45993e-06
-1.92655e-07
4.52633e-06
-1.77284e-07
4.58792e-06
-1.62779e-07
4.64496e-06
-1.49119e-07
4.69768e-06
-1.36283e-07
4.74631e-06
-1.24243e-07
4.79108e-06
-1.12975e-07
4.8322e-06
-1.02449e-07
4.8699e-06
-9.26353e-08
4.90438e-06
-8.35028e-08
4.93583e-06
-7.50194e-08
4.96445e-06
-6.71522e-08
4.99041e-06
-5.9868e-08
5.0139e-06
-5.31336e-08
5.03508e-06
-4.69159e-08
5.0541e-06
-4.1182e-08
5.07112e-06
-3.58995e-08
5.08628e-06
-3.10366e-08
5.0997e-06
-2.65622e-08
5.11154e-06
-2.24465e-08
5.12189e-06
-1.86631e-08
5.13086e-06
-1.51905e-08
5.13857e-06
-1.20026e-08
5.14514e-06
-9.0702e-09
5.15068e-06
-6.37334e-09
5.15528e-06
-3.90085e-09
5.15904e-06
-1.63476e-09
5.16201e-06
4.52943e-10
5.16424e-06
2.36837e-09
5.16579e-06
4.11851e-09
5.1667e-06
5.71795e-09
5.167e-06
7.17785e-09
5.16672e-06
8.5103e-09
5.16589e-06
9.72737e-09
5.16454e-06
1.08404e-08
5.1627e-06
1.18606e-08
5.1604e-06
1.27977e-08
5.15767e-06
1.36612e-08
5.15453e-06
1.44591e-08
5.15101e-06
1.51983e-08
5.14713e-06
1.5885e-08
5.14292e-06
1.65243e-08
5.1384e-06
1.71207e-08
5.13358e-06
1.76783e-08
5.12848e-06
1.82004e-08
5.12313e-06
1.86903e-08
5.11754e-06
1.91506e-08
5.11172e-06
1.95843e-08
5.10568e-06
1.99935e-08
5.09945e-06
2.03808e-08
5.09302e-06
2.0748e-08
5.08642e-06
2.10974e-08
5.07965e-06
2.14307e-08
5.07273e-06
2.17498e-08
5.06565e-06
2.20564e-08
5.05843e-06
2.23518e-08
5.05108e-06
2.2638e-08
5.04359e-06
2.2916e-08
5.03599e-06
2.31874e-08
5.02826e-06
2.34537e-08
5.02042e-06
2.37162e-08
5.01246e-06
2.39765e-08
5.0044e-06
2.42362e-08
4.99623e-06
2.44972e-08
4.98796e-06
2.47617e-08
4.97958e-06
2.50325e-08
4.97109e-06
2.53128e-08
4.9625e-06
2.56065e-08
4.9538e-06
2.59187e-08
4.94499e-06
2.62556e-08
4.93605e-06
2.66248e-08
4.92699e-06
2.70363e-08
4.91778e-06
2.75026e-08
4.90841e-06
2.80395e-08
4.89885e-06
2.86679e-08
4.88908e-06
2.94143e-08
4.87907e-06
3.0314e-08
4.86875e-06
3.14134e-08
4.85807e-06
3.27747e-08
4.84693e-06
3.44827e-08
4.83523e-06
3.66537e-08
4.82282e-06
3.94515e-08
4.80949e-06
4.3111e-08
4.79498e-06
4.79766e-08
4.77891e-06
5.45732e-08
4.76077e-06
6.37083e-08
4.73988e-06
7.675e-08
4.71525e-06
9.58095e-08
4.68595e-06
1.25409e-07
4.64988e-06
1.71165e-07
4.61314e-06
2.52906e-07
3.78688e-07
4.57068e-06
-2.00391e-07
3.72025e-07
-3.94521e-07
4.3963e-07
-5.84317e-07
4.92206e-07
-7.73086e-07
5.36908e-07
-9.63512e-07
5.76087e-07
-1.15677e-06
6.11809e-07
-1.35286e-06
6.45894e-07
-1.55131e-06
6.79544e-07
-1.75152e-06
7.13274e-07
-1.95287e-06
7.47049e-07
-2.1548e-06
7.80456e-07
-2.35676e-06
8.12857e-07
-2.55829e-06
8.43504e-07
-2.75901e-06
8.71628e-07
-2.95867e-06
8.96491e-07
-3.15712e-06
9.17436e-07
-3.35433e-06
9.33903e-07
-3.55036e-06
9.45441e-07
-3.7453e-06
9.51702e-07
-3.93926e-06
9.52418e-07
-4.13223e-06
9.47384e-07
-4.32405e-06
9.36424e-07
-4.51434e-06
9.1937e-07
-4.70242e-06
8.96046e-07
-4.88732e-06
8.66254e-07
-5.0677e-06
8.29779e-07
-5.24193e-06
7.86401e-07
-5.40805e-06
7.35918e-07
-5.56386e-06
6.78171e-07
-5.70697e-06
6.1308e-07
-5.8349e-06
5.40675e-07
-5.94515e-06
4.61128e-07
-6.03528e-06
3.74779e-07
-6.10305e-06
2.82143e-07
-6.14643e-06
1.8391e-07
-6.16377e-06
8.09389e-08
-6.15386e-06
-2.57566e-08
-6.11591e-06
-1.3506e-07
-6.04953e-06
-2.457e-07
-5.95472e-06
-3.56316e-07
-5.83186e-06
-4.65527e-07
-5.68172e-06
-5.71975e-07
-5.50542e-06
-6.74363e-07
-5.30447e-06
-7.71484e-07
-5.08065e-06
-8.62244e-07
-4.83601e-06
-9.45684e-07
-4.57282e-06
-1.021e-06
-4.29352e-06
-1.08756e-06
-4.00061e-06
-1.14493e-06
-3.6967e-06
-1.19284e-06
-3.38431e-06
-1.23125e-06
-3.06595e-06
-1.26032e-06
-2.74393e-06
-1.28038e-06
-2.42043e-06
-1.29193e-06
-2.09739e-06
-1.29559e-06
-1.77651e-06
-1.29207e-06
-1.45926e-06
-1.28215e-06
-1.14686e-06
-1.26658e-06
-8.4032e-07
-1.24615e-06
-5.40445e-07
-1.2216e-06
-2.47886e-07
-1.1936e-06
3.67622e-08
-1.16269e-06
3.13011e-07
-1.12935e-06
5.80511e-07
-1.09406e-06
8.39007e-07
-1.05725e-06
1.08834e-06
-1.01932e-06
1.3284e-06
-9.80598e-07
1.55915e-06
-9.41366e-07
1.78059e-06
-9.01884e-07
1.99275e-06
-8.62375e-07
2.1957e-06
-8.23036e-07
2.38955e-06
-7.84043e-07
2.57441e-06
-7.4555e-07
2.75044e-06
-7.07693e-07
2.91781e-06
-6.70592e-07
3.07673e-06
-6.3435e-07
3.22739e-06
-5.99053e-07
3.37004e-06
-5.64774e-07
3.50492e-06
-5.31573e-07
3.63227e-06
-4.99496e-07
3.75236e-06
-4.68579e-07
3.86545e-06
-4.38845e-07
3.97181e-06
-4.1031e-07
4.07172e-06
-3.8298e-07
4.16543e-06
-3.56855e-07
4.25322e-06
-3.31929e-07
4.33534e-06
-3.0819e-07
4.41205e-06
-2.85622e-07
4.4836e-06
-2.64206e-07
4.55023e-06
-2.43919e-07
4.61219e-06
-2.24737e-07
4.66971e-06
-2.06632e-07
4.723e-06
-1.89576e-07
4.77229e-06
-1.73536e-07
4.8178e-06
-1.58481e-07
4.85972e-06
-1.44375e-07
4.89827e-06
-1.31183e-07
4.93364e-06
-1.18867e-07
4.966e-06
-1.07388e-07
4.99556e-06
-9.67071e-08
5.02247e-06
-8.67834e-08
5.04692e-06
-7.75767e-08
5.06905e-06
-6.90463e-08
5.08902e-06
-6.11521e-08
5.10697e-06
-5.38541e-08
5.12305e-06
-4.71132e-08
5.13738e-06
-4.08913e-08
5.15008e-06
-3.51518e-08
5.16128e-06
-2.98601e-08
5.17108e-06
-2.49856e-08
5.17957e-06
-2.04983e-08
5.18687e-06
-1.63665e-08
5.19306e-06
-1.25626e-08
5.19822e-06
-9.06444e-09
5.20244e-06
-5.84991e-09
5.20578e-06
-2.89387e-09
5.20833e-06
-1.78164e-10
5.21013e-06
2.31411e-09
5.21125e-06
4.60171e-09
5.21173e-06
6.7017e-09
5.21161e-06
8.63071e-09
5.21093e-06
1.0405e-08
5.20973e-06
1.20396e-08
5.20804e-06
1.35485e-08
5.20589e-06
1.49445e-08
5.20332e-06
1.62389e-08
5.20033e-06
1.7442e-08
5.19697e-06
1.85621e-08
5.19325e-06
1.96071e-08
5.18919e-06
2.05835e-08
5.18481e-06
2.14972e-08