/*--------------------------------*- C++ -*----------------------------------*\
  =========                 |
  \\      /  F ield         | OpenFOAM: The Open Source CFD Toolbox
   \\    /   O peration     | Website:  https://openfoam.org
    \\  /    A nd           | Version:  9
     \\/     M anipulation  |
\*---------------------------------------------------------------------------*/
FoamFile
{
    format      ascii;
    class       volVectorField;
    location    "0.01";
    object      U;
}
// * * * * * * * * * * * * * * * * * * * * * * * * * * * * * * * * * * * * * //

dimensions      [0 1 -1 0 0 0 0];

internalField   nonuniform List<vector> 
12225
(
(9.86474 -0.859643 0)
(9.6782 -0.676844 0)
(9.46311 -0.367886 0)
(9.22664 -0.174575 0)
(9.00344 -0.0759726 0)
(8.80907 -0.0279689 0)
(8.64311 -0.00468521 0)
(8.50179 0.00671292 0)
(8.38143 0.0123532 0)
(8.2783 0.0151066 0)
(8.18887 0.0163991 0)
(8.11011 0.0169886 0)
(8.03955 0.0172847 0)
(7.97515 0.0175342 0)
(7.91465 0.0179069 0)
(7.85701 0.018706 0)
(7.79384 0.0207631 0)
(7.74122 0.026073 0)
(10.0523 0.269039 0)
(10.1165 0.3636 0)
(10.1146 0.27189 0)
(10.0801 0.184228 0)
(10.0391 0.128462 0)
(9.99302 0.0949267 0)
(9.93925 0.0742484 0)
(9.87921 0.0609439 0)
(9.81612 0.0518935 0)
(9.75252 0.0453469 0)
(9.68985 0.0404241 0)
(9.62886 0.0367061 0)
(9.56988 0.0339702 0)
(9.51304 0.0321476 0)
(9.45788 0.0311789 0)
(9.40484 0.0317926 0)
(9.35064 0.0332148 0)
(9.3056 0.0440632 0)
(9.99813 0.041189 0)
(10.0222 0.0268974 0)
(10.0523 0.00994656 0)
(10.0698 0.0198401 0)
(10.0769 0.0364455 0)
(10.0772 0.046375 0)
(10.0709 0.0504464 0)
(10.0586 0.0516417 0)
(10.0418 0.0515609 0)
(10.0218 0.0509216 0)
(9.99946 0.0501204 0)
(9.97532 0.0494167 0)
(9.94975 0.0489834 0)
(9.92304 0.0490133 0)
(9.89517 0.0496689 0)
(9.8663 0.0516702 0)
(9.83604 0.0550629 0)
(9.80604 0.064201 0)
(9.99675 0.00544824 0)
(10.0082 0.0255368 0)
(10.0339 0.0405217 0)
(10.0523 0.0516215 0)
(10.0635 0.0579389 0)
(10.072 0.0596435 0)
(10.0777 0.0591988 0)
(10.08 0.058293 0)
(10.0795 0.0573953 0)
(10.0768 0.0565761 0)
(10.0724 0.0559027 0)
(10.0662 0.0554836 0)
(10.0586 0.0554467 0)
(10.0496 0.0559813 0)
(10.0392 0.0573077 0)
(10.0274 0.0600183 0)
(10.0146 0.0644218 0)
(10.0008 0.0723232 0)
(9.99928 0.00695157 0)
(10.0081 0.0344007 0)
(10.027 0.0467134 0)
(10.0414 0.0511502 0)
(10.0517 0.0541384 0)
(10.0613 0.0557606 0)
(10.0697 0.0561895 0)
(10.076 0.0561314 0)
(10.0805 0.0559463 0)
(10.0834 0.055755 0)
(10.085 0.0556671 0)
(10.0855 0.055825 0)
(10.0847 0.0563889 0)
(10.0829 0.057566 0)
(10.08 0.0596092 0)
(10.076 0.0629821 0)
(10.0713 0.0680332 0)
(10.0661 0.0755814 0)
(10.0002 0.00925303 0)
(10.0078 0.0324568 0)
(10.0224 0.0421512 0)
(10.0347 0.0458568 0)
(10.0443 0.0494147 0)
(10.0535 0.0520452 0)
(10.0621 0.0532747 0)
(10.0693 0.0537628 0)
(10.0751 0.0540179 0)
(10.0799 0.0542365 0)
(10.0837 0.0545497 0)
(10.0866 0.0551124 0)
(10.0887 0.0560975 0)
(10.0898 0.0577147 0)
(10.0902 0.0602174 0)
(10.0899 0.0639739 0)
(10.0891 0.0693083 0)
(10.0881 0.0767192 0)
(10.0003 0.00889377 0)
(10.0067 0.0277325 0)
(10.0188 0.0373594 0)
(10.03 0.0420626 0)
(10.0391 0.046062 0)
(10.0477 0.0489591 0)
(10.0559 0.0504605 0)
(10.0631 0.0512099 0)
(10.0693 0.0517248 0)
(10.0747 0.0522105 0)
(10.0793 0.0527983 0)
(10.0833 0.0536443 0)
(10.0866 0.0549249 0)
(10.0893 0.0568431 0)
(10.0914 0.0596354 0)
(10.0931 0.0635989 0)
(10.0945 0.0690076 0)
(10.0961 0.0762063 0)
(10.0003 0.00793053 0)
(10.0057 0.0239492 0)
(10.0159 0.0337227 0)
(10.0262 0.0389844 0)
(10.0348 0.0429338 0)
(10.0428 0.0458001 0)
(10.0506 0.0474627 0)
(10.0576 0.0484227 0)
(10.0639 0.0491385 0)
(10.0695 0.0498221 0)
(10.0745 0.0506109 0)
(10.079 0.0516611 0)
(10.0831 0.053146 0)
(10.0866 0.0552554 0)
(10.0898 0.0582001 0)
(10.0928 0.0622183 0)
(10.0958 0.0675248 0)
(10.0992 0.0743743 0)
(10.0004 0.00706508 0)
(10.0048 0.0209971 0)
(10.0135 0.0304222 0)
(10.0228 0.0358325 0)
(10.0309 0.0396707 0)
(10.0385 0.0425117 0)
(10.0459 0.044324 0)
(10.0528 0.0454653 0)
(10.059 0.046338 0)
(10.0647 0.0471665 0)
(10.0699 0.0480971 0)
(10.0748 0.0492821 0)
(10.0793 0.0508856 0)
(10.0835 0.0530799 0)
(10.0875 0.0560455 0)
(10.0915 0.0599696 0)
(10.0957 0.0650104 0)
(10.1005 0.0713624 0)
(10.0004 0.00629464 0)
(10.0042 0.0184327 0)
(10.0115 0.0272061 0)
(10.0198 0.032599 0)
(10.0274 0.0363633 0)
(10.0347 0.0391743 0)
(10.0417 0.0410827 0)
(10.0484 0.0423543 0)
(10.0546 0.0433386 0)
(10.0603 0.044264 0)
(10.0657 0.0452808 0)
(10.0708 0.0465329 0)
(10.0757 0.0481708 0)
(10.0804 0.0503454 0)
(10.0851 0.0532055 0)
(10.09 0.0568932 0)
(10.0952 0.0615164 0)
(10.101 0.0672217 0)
(10.0003 0.00556926 0)
(10.0036 0.0161283 0)
(10.0098 0.0241407 0)
(10.0172 0.0293944 0)
(10.0243 0.0330634 0)
(10.0312 0.0358002 0)
(10.0379 0.0377354 0)
(10.0444 0.039081 0)
(10.0505 0.0401315 0)
(10.0563 0.0411057 0)
(10.0618 0.0421519 0)
(10.0672 0.0434027 0)
(10.0724 0.0449908 0)
(10.0776 0.0470436 0)
(10.0829 0.0496779 0)
(10.0885 0.0529961 0)
(10.0945 0.0570624 0)
(10.1012 0.0619831 0)
(10.0003 0.00492707 0)
(10.0031 0.0141978 0)
(10.0085 0.0214798 0)
(10.0151 0.0264973 0)
(10.0218 0.0300295 0)
(10.0284 0.0326573 0)
(10.0348 0.0345616 0)
(10.0411 0.0359235 0)
(10.0472 0.036989 0)
(10.053 0.0379597 0)
(10.0586 0.038977 0)
(10.0642 0.0401608 0)
(10.0697 0.041625 0)
(10.0752 0.0434741 0)
(10.081 0.0457968 0)
(10.0871 0.0486628 0)
(10.0938 0.0521023 0)
(10.1012 0.0561937 0)
(10.0003 0.00432756 0)
(10.0027 0.0124448 0)
(10.0074 0.0189757 0)
(10.0134 0.0236612 0)
(10.0196 0.0270088 0)
(10.0259 0.029497 0)
(10.0321 0.0313265 0)
(10.0382 0.0326587 0)
(10.0442 0.0336977 0)
(10.05 0.0346219 0)
(10.0557 0.0355618 0)
(10.0614 0.0366228 0)
(10.0672 0.0378995 0)
(10.0731 0.0394736 0)
(10.0792 0.0414079 0)
(10.0858 0.0437441 0)
(10.0929 0.0464845 0)
(10.1008 0.0496825 0)
(10.0002 0.00370068 0)
(10.0024 0.0106151 0)
(10.0064 0.0162826 0)
(10.0117 0.0204971 0)
(10.0175 0.0235622 0)
(10.0234 0.0258384 0)
(10.0293 0.0275223 0)
(10.0352 0.0287575 0)
(10.0411 0.0297061 0)
(10.0469 0.0305166 0)
(10.0527 0.0313018 0)
(10.0586 0.0321491 0)
(10.0646 0.0331303 0)
(10.0707 0.0343019 0)
(10.0773 0.0357001 0)
(10.0842 0.0373399 0)
(10.0917 0.0391989 0)
(10.1 0.0413071 0)
(10.0002 0.00304289 0)
(10.002 0.00870345 0)
(10.0055 0.013404 0)
(10.0102 0.0170014 0)
(10.0155 0.0196596 0)
(10.021 0.0216266 0)
(10.0266 0.0230718 0)
(10.0324 0.0241173 0)
(10.0382 0.0248852 0)
(10.0439 0.025489 0)
(10.0498 0.0260171 0)
(10.0558 0.0265344 0)
(10.0619 0.0270881 0)
(10.0683 0.0277086 0)
(10.075 0.0284068 0)
(10.0823 0.0291742 0)
(10.09 0.0299695 0)
(10.0984 0.0308037 0)
(10.0002 0.00235264 0)
(10.0018 0.00670436 0)
(10.0048 0.0103344 0)
(10.0089 0.0131602 0)
(10.0137 0.015263 0)
(10.0189 0.016796 0)
(10.0242 0.0178849 0)
(10.0297 0.0186225 0)
(10.0354 0.0190927 0)
(10.0411 0.0193718 0)
(10.0469 0.0195184 0)
(10.0529 0.0195717 0)
(10.0591 0.0195537 0)
(10.0656 0.0194707 0)
(10.0724 0.0193118 0)
(10.0796 0.0190505 0)
(10.0873 0.0186348 0)
(10.0955 0.0180619 0)
(10.0002 0.00162382 0)
(10.0015 0.00459227 0)
(10.0042 0.00703832 0)
(10.0079 0.00893329 0)
(10.0123 0.0103159 0)
(10.0171 0.0112676 0)
(10.0222 0.0118632 0)
(10.0275 0.0121588 0)
(10.0329 0.0122008 0)
(10.0385 0.0120283 0)
(10.0442 0.011668 0)
(10.0501 0.0111327 0)
(10.0561 0.0104212 0)
(10.0624 0.00951982 0)
(10.069 0.0084027 0)
(10.0759 0.00703347 0)
(10.0831 0.00535849 0)
(10.0908 0.00336803 0)
(10.0002 0.000836171 0)
(10.0014 0.00230399 0)
(10.0038 0.00342684 0)
(10.0072 0.00422258 0)
(10.0113 0.00471169 0)
(10.0158 0.00492326 0)
(10.0206 0.00488157 0)
(10.0257 0.00460223 0)
(10.0308 0.00409474 0)
(10.0362 0.00336287 0)
(10.0416 0.0024029 0)
(10.0471 0.00120263 0)
(10.0528 -0.000258173 0)
(10.0586 -0.0020069 0)
(10.0646 -0.00407747 0)
(10.0708 -0.00650827 0)
(10.0771 -0.00934621 0)
(10.0837 -0.0126049 0)
(10.0001 -5.71718e-05 0)
(10.0013 -0.000290378 0)
(10.0037 -0.000677515 0)
(10.0069 -0.00115573 0)
(10.0109 -0.00171203 0)
(10.0152 -0.00236338 0)
(10.0198 -0.00313759 0)
(10.0246 -0.00406115 0)
(10.0295 -0.00515928 0)
(10.0344 -0.00645927 0)
(10.0394 -0.0079911 0)
(10.0443 -0.00978661 0)
(10.0493 -0.011879 0)
(10.0543 -0.0143024 0)
(10.0593 -0.017092 0)
(10.0643 -0.0202822 0)
(10.0693 -0.0239082 0)
(10.0742 -0.027986 0)
(10.0002 -0.000914329 0)
(10.0014 -0.00278383 0)
(10.0039 -0.00461167 0)
(10.0073 -0.00627621 0)
(10.0114 -0.00776688 0)
(10.0158 -0.0091525 0)
(10.0203 -0.0105129 0)
(10.0249 -0.0119103 0)
(10.0296 -0.0133985 0)
(10.0342 -0.0150312 0)
(10.0387 -0.0168587 0)
(10.0431 -0.0189252 0)
(10.0473 -0.0212701 0)
(10.0515 -0.0239292 0)
(10.0555 -0.0269354 0)
(10.0593 -0.0303175 0)
(10.063 -0.0341009 0)
(10.0665 -0.0382995 0)
(10.0002 -0.00165047 0)
(10.0016 -0.004942 0)
(10.0043 -0.00800282 0)
(10.0081 -0.0106015 0)
(10.0124 -0.012753 0)
(10.017 -0.0146208 0)
(10.0217 -0.0163357 0)
(10.0263 -0.0179752 0)
(10.0308 -0.0196135 0)
(10.0352 -0.0213305 0)
(10.0394 -0.023195 0)
(10.0434 -0.0252599 0)
(10.0471 -0.0275677 0)
(10.0507 -0.0301546 0)
(10.054 -0.0330518 0)
(10.057 -0.0362846 0)
(10.0597 -0.0398726 0)
(10.0622 -0.0438285 0)
(10.0002 -0.00234828 0)
(10.0017 -0.00706638 0)
(10.0049 -0.0113678 0)
(10.0093 -0.0147776 0)
(10.0141 -0.0173958 0)
(10.0189 -0.0195677 0)
(10.0238 -0.0214849 0)
(10.0285 -0.0232266 0)
(10.033 -0.0248823 0)
(10.0373 -0.0265541 0)
(10.0412 -0.0283236 0)
(10.0449 -0.0302489 0)
(10.0483 -0.0323754 0)
(10.0513 -0.0347403 0)
(10.0541 -0.0373734 0)
(10.0564 -0.040297 0)
(10.0585 -0.0435266 0)
(10.0602 -0.0470731 0)
(10.0002 -0.00299123 0)
(10.0019 -0.00919314 0)
(10.0056 -0.0147621 0)
(10.0108 -0.0188896 0)
(10.0163 -0.0218746 0)
(10.0215 -0.0242382 0)
(10.0265 -0.0261991 0)
(10.0314 -0.0278746 0)
(10.0359 -0.0294114 0)
(10.0401 -0.0309349 0)
(10.044 -0.0325222 0)
(10.0474 -0.0342254 0)
(10.0505 -0.0360895 0)
(10.0532 -0.038152 0)
(10.0555 -0.0404409 0)
(10.0574 -0.0429756 0)
(10.059 -0.0457688 0)
(10.0601 -0.0488292 0)
(10.0001 -0.00357102 0)
(10.0019 -0.0115811 0)
(10.0065 -0.0181602 0)
(10.0127 -0.0225966 0)
(10.0188 -0.0259205 0)
(10.0244 -0.0286048 0)
(10.0297 -0.0306269 0)
(10.0348 -0.0321454 0)
(10.0394 -0.0334489 0)
(10.0436 -0.034724 0)
(10.0474 -0.036047 0)
(10.0507 -0.0374619 0)
(10.0536 -0.0390105 0)
(10.056 -0.0407278 0)
(10.058 -0.0426378 0)
(10.0596 -0.0447562 0)
(10.0607 -0.0470916 0)
(10.0614 -0.0496492 0)
(9.99997 -0.00377817 0)
(10.0018 -0.0151654 0)
(10.0076 -0.0226362 0)
(10.0147 -0.0262496 0)
(10.0212 -0.0292032 0)
(10.0273 -0.0320802 0)
(10.0332 -0.0342955 0)
(10.0386 -0.035831 0)
(10.0435 -0.0370268 0)
(10.0477 -0.0381151 0)
(10.0515 -0.0391911 0)
(10.0547 -0.0403129 0)
(10.0574 -0.0415318 0)
(10.0596 -0.0428859 0)
(10.0613 -0.044399 0)
(10.0625 -0.0460859 0)
(10.0632 -0.0479537 0)
(10.0634 -0.0500064 0)
(9.99911 -0.00175201 0)
(10.0003 -0.0185756 0)
(10.0086 -0.0293731 0)
(10.0173 -0.0327037 0)
(10.0241 -0.0341807 0)
(10.0306 -0.0357771 0)
(10.0372 -0.0372084 0)
(10.0433 -0.0383642 0)
(10.0485 -0.0393676 0)
(10.0529 -0.0402868 0)
(10.0565 -0.0411575 0)
(10.0594 -0.0420306 0)
(10.0616 -0.0429592 0)
(10.0632 -0.0439824 0)
(10.0641 -0.0451257 0)
(10.0644 -0.0464064 0)
(10.0641 -0.0478313 0)
(10.0633 -0.0494039 0)
(9.99557 0.00413073 0)
(9.99392 -0.0122826 0)
(10.0075 -0.0304044 0)
(10.0213 -0.0417591 0)
(10.0307 -0.0467461 0)
(10.0383 -0.0477614 0)
(10.0453 -0.0471119 0)
(10.0512 -0.0462775 0)
(10.0557 -0.0457054 0)
(10.0589 -0.0453622 0)
(10.061 -0.045182 0)
(10.062 -0.0451553 0)
(10.0621 -0.0452888 0)
(10.0613 -0.045585 0)
(10.0597 -0.046045 0)
(10.0574 -0.0466713 0)
(10.0545 -0.0474567 0)
(10.0509 -0.0483771 0)
(9.99051 -0.0126689 0)
(9.98987 0.00730909 0)
(10.0089 0.0227135 0)
(10.0293 0.0141336 0)
(10.0441 -0.00463854 0)
(10.0537 -0.019399 0)
(10.0592 -0.0282023 0)
(10.0609 -0.0333427 0)
(10.0597 -0.0364649 0)
(10.0563 -0.0383493 0)
(10.0512 -0.0394668 0)
(10.0446 -0.0401529 0)
(10.0369 -0.0406258 0)
(10.0281 -0.0410178 0)
(10.0185 -0.0414147 0)
(10.0083 -0.0418791 0)
(9.99754 -0.042467 0)
(9.98639 -0.0431524 0)
(10.0214 -0.210444 0)
(10.0645 -0.314527 0)
(10.075 -0.253586 0)
(10.0674 -0.180838 0)
(10.0588 -0.131891 0)
(10.049 -0.100593 0)
(10.0338 -0.079879 0)
(10.0125 -0.0660346 0)
(9.98699 -0.0566255 0)
(9.95909 -0.0499736 0)
(9.92994 -0.0450768 0)
(9.90024 -0.0413728 0)
(9.87047 -0.038522 0)
(9.84095 -0.036306 0)
(9.81189 -0.0345877 0)
(9.7834 -0.0333112 0)
(9.7557 -0.0324494 0)
(9.72878 -0.0323223 0)
(9.94527 0.660698 0)
(9.8853 0.548912 0)
(9.77887 0.321839 0)
(9.63472 0.170553 0)
(9.48764 0.0862663 0)
(9.35445 0.0413374 0)
(9.23698 0.0173674 0)
(9.13354 0.00424981 0)
(9.04249 -0.00316186 0)
(8.96209 -0.0074512 0)
(8.89057 -0.0099849 0)
(8.8263 -0.0115272 0)
(8.76801 -0.0125087 0)
(8.71466 -0.0131746 0)
(8.66541 -0.0136718 0)
(8.61951 -0.0141154 0)
(8.57611 -0.0145948 0)
(8.53483 -0.0154493 0)
(0.0444163 -0.131042 -2.81358e-20)
(0.0763669 -0.0755736 2.4814e-20)
(0.0793278 -0.021408 0)
(0.0578087 0.018019 0)
(0.00606864 0.0274529 0)
(-0.0478642 0.030106 -2.78253e-20)
(-0.107644 0.0378445 0)
(-0.17901 0.0472585 0)
(-0.261525 0.0586042 0)
(-0.356605 0.0720513 0)
(-0.465716 0.0875531 2.59366e-20)
(-0.590146 0.104974 0)
(-0.730922 0.124123 0)
(-0.888769 0.144729 0)
(-1.06406 0.166411 0)
(-1.25675 0.188657 2.4333e-20)
(-1.46637 0.210832 0)
(-1.69196 0.23221 0)
(-1.93208 0.252017 0)
(-2.18483 0.269489 0)
(-2.44789 0.28392 0)
(-2.71859 0.294701 0)
(-2.99396 0.301354 0)
(-3.27086 0.303543 2.37616e-20)
(-3.54602 0.301077 -2.38705e-20)
(-3.81608 0.293907 2.39946e-20)
(-4.07775 0.282111 2.4122e-20)
(-4.32774 0.265875 0)
(-4.56292 0.245486 0)
(-4.78027 0.221324 -2.43939e-20)
(-4.97694 0.193859 -2.44028e-20)
(-5.15032 0.163654 0)
(-5.29804 0.131403 0)
(-5.41799 0.097943 -2.39985e-20)
(-5.50859 0.0642577 0)
(-5.56799 0.0316749 0)
(-5.59505 0.00115742 2.26809e-20)
(-5.59078 -0.0267217 0)
(-5.56049 -0.0519421 2.09877e-20)
(-5.50356 -0.075667 3.98124e-20)
(-5.42086 -0.0983357 0)
(-5.31324 -0.120034 0)
(-5.18157 -0.140702 0)
(-5.02692 -0.160216 0)
(-4.85053 -0.178435 0)
(-4.65383 -0.19522 2.00523e-20)
(-4.43844 -0.21045 1.5685e-20)
(-4.20616 -0.22403 1.10411e-20)
(-3.95888 -0.235888 0)
(-3.69862 -0.245988 -9.8327e-22)
(-3.42743 -0.254318 0)
(-3.1474 -0.260897 -9.99967e-21)
(-2.86058 -0.265764 -1.58017e-20)
(-2.56899 -0.268974 0)
(-2.27455 -0.270592 0)
(-1.97909 -0.270676 0)
(-1.68432 -0.269271 -4.08136e-20)
(-1.39182 -0.266389 0)
(-1.10304 -0.262008 0)
(-0.819428 -0.256033 0)
(-0.542204 -0.248243 0)
(-0.272018 -0.238558 0)
(-0.00911694 -0.22718 0)
(0.246532 -0.215052 0)
(0.494596 -0.202962 0)
(0.734127 -0.191098 7.5632e-20)
(0.964707 -0.179534 0)
(1.18607 -0.168314 0)
(1.39807 -0.157462 -7.21431e-20)
(1.6006 -0.146993 -7.08956e-20)
(1.79365 -0.136918 0)
(1.97725 -0.127243 6.83775e-20)
(2.15147 -0.11797 -6.71304e-20)
(2.31644 -0.109102 0)
(2.47229 -0.100638 6.47019e-20)
(2.61921 -0.0925771 0)
(2.7574 -0.0849187 0)
(2.8871 -0.0776605 -6.13002e-20)
(3.00855 -0.0708001 0)
(3.12202 -0.0643346 5.92252e-20)
(3.22779 -0.0582606 0)
(3.32615 -0.052574 -5.73134e-20)
(3.41741 -0.0472693 -5.64182e-20)
(3.50189 -0.0423401 -5.55626e-20)
(3.57989 -0.0377782 -1.09491e-19)
(3.65176 -0.0335738 1.07932e-19)
(3.71781 -0.0297152 0)
(3.77837 -0.0261891 0)
(3.83378 -0.0229805 0)
(3.88434 -0.0200731 1.02384e-19)
(3.93039 -0.0174496 1.01155e-19)
(3.97223 -0.0150919 -9.9983e-20)
(4.01015 -0.0129816 0)
(4.04445 -0.0111003 9.77987e-20)
(4.0754 -0.00942985 9.67812e-20)
(4.10328 -0.00795249 9.581e-20)
(4.12832 -0.00665103 0)
(4.15077 -0.00550905 0)
(4.17085 -0.00451103 0)
(4.18877 -0.00364238 9.23398e-20)
(4.20472 -0.0028895 0)
(4.21889 -0.00223982 0)
(4.23144 -0.00168176 -9.01088e-20)
(4.24253 -0.00120466 0)
(4.2523 -0.000798441 0)
(4.26088 -0.000454085 -8.81366e-20)
(4.26838 -0.000161857 0)
(4.2749 8.97463e-05 0)
(4.28054 0.000325413 8.63799e-20)
(4.28527 0.000602127 8.58344e-20)
(4.28897 0.000948936 0)
(4.29168 0.00133953 -8.47944e-20)
(4.2935 0.00173673 0)
(4.29451 0.00210951 8.38287e-20)
(4.29482 0.00243422 0)
(4.29452 0.00269435 8.29266e-20)
(4.29373 0.00287709 8.24958e-20)
(4.29256 0.00297493 0)
(4.29112 0.00298988 0)
(4.2895 0.00293239 0)
(4.28777 0.0028182 0)
(4.28599 0.00266528 0)
(4.2842 0.00249091 0)
(4.28241 0.00230942 0)
(4.28064 0.00213127 7.9382e-20)
(4.2789 0.00196301 -7.90225e-20)
(4.27718 0.00180805 0)
(4.27549 0.00166745 0)
(4.27383 0.0015409 0)
(4.27219 0.00142731 0)
(4.27058 0.00132534 -1.54587e-19)
(4.26898 0.00123364 0)
(4.26741 0.00115097 1.53258e-19)
(4.26586 0.00107627 -1.52604e-19)
(4.26432 0.00100865 0)
(4.2628 0.000947324 0)
(4.2613 0.000891643 0)
(4.25981 0.000841037 1.50042e-19)
(4.25833 0.000795009 1.49414e-19)
(4.25687 0.000753118 0)
(4.25542 0.000714985 1.48171e-19)
(4.25397 0.00068028 1.47556e-19)
(4.25254 0.000648728 -1.46945e-19)
(4.25111 0.000620098 0)
(4.24969 0.000594206 0)
(4.24827 0.000570917 -1.45133e-19)
(4.24685 0.000550145 0)
(4.24543 0.000531855 0)
(4.24401 0.000516058 0)
(4.24258 0.000502811 0)
(4.24114 0.000492219 1.42177e-19)
(4.23969 0.000484449 1.41595e-19)
(4.23822 0.00047973 0)
(4.23672 0.000478369 1.40441e-19)
(4.23519 0.000480767 0)
(4.23361 0.000487455 0)
(4.23199 0.000499119 1.38736e-19)
(4.23029 0.000516652 0)
(4.22852 0.000541211 1.3762e-19)
(4.22663 0.00057431 0)
(4.22462 0.000617923 0)
(4.22243 0.000674636 1.35989e-19)
(4.22003 0.00074784 0)
(4.21736 0.000842008 1.34941e-19)
(4.21434 0.000963079 0)
(4.21087 0.001119 0)
(4.20683 0.00132055 0)
(4.20205 0.0015825 -1.33016e-19)
(4.19629 0.00192552 0)
(4.18925 0.00237916 1.32208e-19)
(4.18048 0.00298667 0)
(4.16938 0.00381363 0)
(4.15504 0.00496258 0)
(4.13612 0.00660188 0)
(4.11056 0.00902336 0)
(4.0747 0.0127221 0)
(4.0237 0.0188747 0)
(3.94265 0.0284382 -2.67289e-19)
(3.83355 0.050608 0)
(3.56207 0.0699031 0)
(-0.0533143 -0.111014 8.12524e-20)
(-0.10844 0.0113833 -6.91972e-20)
(-0.196796 0.104685 0)
(-0.307788 0.171644 3.9442e-20)
(-0.432765 0.214238 0)
(-0.569765 0.245652 1.87322e-20)
(-0.71846 0.275751 -3.56991e-20)
(-0.878621 0.307642 -3.48878e-20)
(-1.04991 0.342234 0)
(-1.23246 0.379615 -3.36039e-20)
(-1.42622 0.419265 -1.68536e-20)
(-1.6309 0.460338 0)
(-1.84585 0.501806 0)
(-2.07002 0.542536 0)
(-2.302 0.581337 0)
(-2.54002 0.617012 -1.60997e-20)
(-2.78202 0.64841 0)
(-3.02571 0.674488 3.23646e-20)
(-3.2687 0.694362 0)
(-3.50858 0.707353 0)
(-3.743 0.713005 -3.36001e-20)
(-3.96975 0.711095 0)
(-4.18685 0.701615 3.48155e-20)
(-4.39255 0.684746 -1.7388e-20)
(-4.58538 0.660819 1.76938e-20)
(-4.76414 0.630275 -1.80003e-20)
(-4.92788 0.593626 -1.82943e-20)
(-5.0759 0.551419 0)
(-5.20769 0.504209 0)
(-5.3229 0.452553 1.89622e-20)
(-5.42132 0.396996 -2.02644e-20)
(-5.50287 0.338087 0)
(-5.56755 0.276406 0)
(-5.61549 0.212604 1.88617e-20)
(-5.6468 0.147521 0)
(-5.6619 0.0822522 0)
(-5.66084 0.0179083 -1.7669e-20)
(-5.64197 -0.0448417 0)
(-5.59984 -0.105512 1.75583e-20)
(-5.53426 -0.164169 -3.03231e-20)
(-5.44478 -0.220682 0)
(-5.33148 -0.274734 0)
(-5.19488 -0.325917 -4.96979e-20)
(-5.03589 -0.373805 -4.42329e-20)
(-4.85569 -0.417987 -3.83975e-20)
(-4.65569 -0.458101 1.77876e-20)
(-4.4375 -0.493849 -1.11768e-20)
(-4.2029 -0.525009 -2.67788e-20)
(-3.95382 -0.551444 1.20025e-20)
(-3.69223 -0.573102 6.79169e-22)
(-3.42019 -0.590019 0)
(-3.13974 -0.602318 6.76511e-21)
(-2.85289 -0.610193 -7.1442e-21)
(-2.56157 -0.613906 0)
(-2.26764 -0.61377 0)
(-1.97278 -0.610134 0)
(-1.67855 -0.603361 2.62918e-20)
(-1.38632 -0.593807 0)
(-1.09729 -0.5818 -6.55679e-20)
(-0.812479 -0.567633 0)
(-0.532738 -0.551531 -8.2398e-20)
(-0.25875 -0.533645 0)
(0.00854726 -0.514122 9.56425e-20)
(0.268085 -0.493427 0)
(0.519507 -0.47215 -9.98541e-20)
(0.762584 -0.450606 4.95431e-20)
(0.997124 -0.429015 0)
(1.22295 -0.407537 1.03309e-19)
(1.43995 -0.3863 5.28108e-20)
(1.64806 -0.365409 5.29062e-20)
(1.84728 -0.344949 0)
(2.03764 -0.324991 5.15015e-20)
(2.21925 -0.305592 5.26795e-20)
(2.3922 -0.286799 0)
(2.55667 -0.26865 -5.2221e-20)
(2.71282 -0.251172 1.02957e-19)
(2.86086 -0.234386 0)
(3.00102 -0.218307 5.12534e-20)
(3.13352 -0.202944 0)
(3.25861 -0.188301 -1.50888e-19)
(3.37656 -0.174379 0)
(3.4876 -0.161172 1.48582e-19)
(3.59201 -0.148676 4.92764e-20)
(3.69004 -0.136881 -4.84646e-20)
(3.78196 -0.125775 -9.61705e-20)
(3.86802 -0.115344 9.54036e-20)
(3.94848 -0.105572 0)
(4.0236 -0.0964413 0)
(4.09362 -0.0879308 0)
(4.15879 -0.0800191 -2.7779e-19)
(4.21936 -0.072683 -9.19316e-20)
(4.27557 -0.0658979 9.114e-20)
(4.32765 -0.0596384 0)
(4.37584 -0.0538781 8.9325e-20)
(4.42037 -0.0485903 -8.88534e-20)
(4.46145 -0.0437477 -8.81245e-20)
(4.4993 -0.0393231 0)
(4.53413 -0.0352892 0)
(4.56614 -0.0316193 0)
(4.59551 -0.0282875 -8.5393e-20)
(4.62245 -0.0252685 0)
(4.64711 -0.0225379 1.68157e-19)
(4.66966 -0.0200725 2.50514e-19)
(4.69027 -0.01785 -1.65822e-19)
(4.70908 -0.0158488 0)
(4.72623 -0.0140483 -8.177e-20)
(4.74185 -0.0124271 0)
(4.75607 -0.0109617 -1.61558e-19)
(4.76899 -0.00961932 8.02518e-20)
(4.78083 -0.00835231 7.97708e-20)
(4.79189 -0.00714238 0)
(4.80227 -0.00601349 2.36633e-19)
(4.81201 -0.00499334 -1.5684e-19)
(4.82112 -0.00408716 -7.80008e-20)
(4.82961 -0.00329257 0)
(4.83749 -0.00260906 -7.71389e-20)
(4.84477 -0.0020329 -2.30141e-19)
(4.85144 -0.00155714 0)
(4.8575 -0.00117052 -1.51831e-19)
(4.86296 -0.00085948 -1.51068e-19)
(4.86786 -0.000610051 -1.50323e-19)
(4.87221 -0.000409191 0)
(4.87605 -0.000245799 0)
(4.87944 -0.000111171 0)
(4.88241 1.09164e-06 7.37458e-20)
(4.885 9.54995e-05 7.34238e-20)
(4.88725 0.000175178 0)
(4.88921 0.000242349 1.45532e-19)
(4.89089 0.000298701 1.44896e-19)
(4.89233 0.000345621 0)
(4.89355 0.000384329 1.4366e-19)
(4.89457 0.000415932 2.86086e-19)
(4.89542 0.000441443 -1.42448e-19)
(4.8961 0.000461778 -1.41841e-19)
(4.89663 0.000477753 0)
(4.89704 0.000490083 0)
(4.89732 0.000499392 0)
(4.89749 0.000506217 -1.39536e-19)
(4.89755 0.000511021 1.38963e-19)
(4.89753 0.000514207 2.76813e-19)
(4.89743 0.000516131 -1.37854e-19)
(4.89725 0.000517112 1.37295e-19)
(4.897 0.000517444 1.36753e-19)
(4.89668 0.000517398 0)
(4.89631 0.000517234 0)
(4.89589 0.000517206 -1.35124e-19)
(4.89541 0.000517577 0)
(4.89489 0.000518625 0)
(4.89433 0.000520659 2.67063e-19)
(4.89373 0.000524033 0)
(4.89309 0.000529165 1.3248e-19)
(4.89241 0.000536571 -1.31963e-19)
(4.8917 0.000546886 0)
(4.89095 0.000560898 1.30926e-19)
(4.89017 0.000579588 0)
(4.88936 0.000604186 0)
(4.88851 0.000636233 -1.29401e-19)
(4.88762 0.000677667 2.57791e-19)
(4.88668 0.000730934 -1.28399e-19)
(4.88569 0.000799144 0)
(4.88463 0.000886269 0)
(4.8835 0.000997409 1.2692e-19)
(4.88228 0.00113916 0)
(4.88093 0.0013201 1.25967e-19)
(4.87944 0.00155153 0)
(4.87777 0.00184846 0)
(4.87585 0.00223111 0)
(4.87364 0.00272706 1.24203e-19)
(4.87103 0.00337473 0)
(4.86792 0.00422862 -1.2343e-19)
(4.86414 0.00536818 0)
(4.85949 0.0069123 0)
(4.85368 0.00904687 2.45048e-19)
(4.8463 0.0120674 -2.44705e-19)
(4.83685 0.0164991 0)
(4.82422 0.0231658 0)
(4.80837 0.0341329 0)
(4.78364 0.051153 7.3863e-19)
(4.76023 0.0879032 0)
(4.70063 0.13326 -4.97868e-19)
(-0.114873 0.158629 -1.56176e-21)
(-0.226322 0.291939 7.77569e-20)
(-0.370015 0.394845 0)
(-0.525317 0.473368 -6.32507e-20)
(-0.686349 0.533526 0)
(-0.854559 0.583717 0)
(-1.03051 0.630723 2.82535e-22)
(-1.21346 0.677989 2.79083e-20)
(-1.40257 0.726681 2.72695e-20)
(-1.59702 0.776719 2.70319e-20)
(-1.79592 0.827289 0)
(-1.99827 0.877162 0)
(-2.20299 0.924913 -2.65985e-20)
(-2.40891 0.969045 -5.33336e-20)
(-2.61483 1.0081 5.36561e-20)
(-2.81955 1.04074 0)
(-3.02196 1.06581 5.48359e-20)
(-3.22108 1.0824 -2.70873e-20)
(-3.4161 1.08988 0)
(-3.6064 1.0879 5.7762e-20)
(-3.79152 1.07641 2.84721e-20)
(-3.97118 1.05559 -6.02609e-20)
(-4.14515 1.02581 -2.96587e-20)
(-4.31325 0.987579 0)
(-4.47525 0.941512 6.43055e-20)
(-4.63078 0.888243 6.56083e-20)
(-4.77933 0.828416 0)
(-4.92016 0.762653 6.79409e-20)
(-5.05228 0.691551 0)
(-5.17447 0.615677 6.96683e-20)
(-5.28532 0.53558 3.36531e-20)
(-5.38319 0.451798 0)
(-5.46633 0.364864 0)
(-5.53283 0.275289 0)
(-5.58069 0.183566 0)
(-5.60797 0.090108 0)
(-5.61304 -0.00461344 0)
(-5.59457 -0.100068 6.39517e-20)
(-5.55171 -0.195396 -8.9808e-20)
(-5.48431 -0.289279 0)
(-5.3924 -0.380518 0)
(-5.27631 -0.46807 0)
(-5.1367 -0.550991 -3.30721e-21)
(-4.97455 -0.628434 3.72971e-20)
(-4.79113 -0.699655 6.76787e-20)
(-4.58794 -0.76403 -5.70164e-20)
(-4.36671 -0.821063 -2.44296e-20)
(-4.12932 -0.870397 1.57828e-20)
(-3.87778 -0.911826 2.75783e-21)
(-3.61419 -0.945291 6.62629e-21)
(-3.34068 -0.970882 0)
(-3.05935 -0.988829 -5.74635e-21)
(-2.77228 -0.999488 2.41571e-21)
(-2.48141 -1.00332 0)
(-2.18856 -1.00089 0)
(-1.89542 -0.992788 3.08712e-20)
(-1.60347 -0.979667 0)
(-1.31402 -0.962177 0)
(-1.02817 -0.940958 -4.76754e-20)
(-0.746879 -0.91664 -1.12278e-19)
(-0.470922 -0.889843 6.45947e-20)
(-0.200931 -0.861162 0)
(0.0623335 -0.831052 -7.42343e-20)
(0.318156 -0.799813 0)
(0.566157 -0.767735 -7.55389e-20)
(0.806074 -0.735105 -8.07509e-20)
(1.03771 -0.702207 1.61743e-19)
(1.26093 -0.669283 8.09462e-20)
(1.47562 -0.636543 0)
(1.68176 -0.604168 -1.68992e-19)
(1.87934 -0.572309 0)
(2.06841 -0.541098 -2.58824e-19)
(2.24905 -0.510642 -1.72855e-19)
(2.42137 -0.481031 -1.73565e-19)
(2.58551 -0.452337 1.74041e-19)
(2.74164 -0.424618 -2.62204e-19)
(2.88995 -0.397917 0)
(3.03065 -0.372267 0)
(3.16396 -0.347687 1.74139e-19)
(3.29012 -0.32419 2.6128e-19)
(3.40937 -0.301778 0)
(3.52196 -0.280451 -8.69247e-20)
(3.62815 -0.260197 0)
(3.72817 -0.241005 2.5803e-19)
(3.8223 -0.222858 7.22212e-22)
(3.91077 -0.205734 -6.66121e-22)
(3.99383 -0.189612 -1.69655e-19)
(4.07173 -0.174464 0)
(4.14469 -0.160263 1.68095e-19)
(4.21296 -0.14698 4.80059e-22)
(4.27675 -0.134582 0)
(4.3363 -0.123037 0)
(4.39182 -0.112311 0)
(4.44351 -0.102367 -1.6421e-19)
(4.4916 -0.0931686 0)
(4.53628 -0.0846792 0)
(4.57774 -0.0768604 0)
(4.61617 -0.0696739 0)
(4.65176 -0.0630814 0)
(4.68469 -0.0570453 -1.58561e-19)
(4.71512 -0.0515284 0)
(4.74322 -0.0464947 -1.56992e-19)
(4.76914 -0.0419089 -1.5612e-19)
(4.79304 -0.037737 1.55259e-19)
(4.81504 -0.0339463 0)
(4.83529 -0.0305049 1.53575e-19)
(4.85391 -0.0273822 0)
(4.87103 -0.0245478 1.51948e-19)
(4.88675 -0.0219774 -1.51155e-19)
(4.90118 -0.0196619 -4.50958e-19)
(4.91443 -0.0175879 0)
(4.92659 -0.0157283 -4.46458e-19)
(4.93777 -0.0140546 -1.48005e-19)
(4.94808 -0.0125375 0)
(4.95761 -0.0111535 -2.93278e-19)
(4.96642 -0.009893 -2.91869e-19)
(4.97456 -0.00875046 4.35742e-19)
(4.98209 -0.00771612 0)
(4.98903 -0.00678278 1.43908e-19)
(4.99543 -0.00594561 1.43244e-19)
(5.00132 -0.00519915 4.27714e-19)
(5.00672 -0.00453683 0)
(5.01166 -0.00395137 0)
(5.01617 -0.003435 0)
(5.02028 -0.00297979 1.40055e-19)
(5.02401 -0.00257813 0)
(5.02739 -0.00222307 0)
(5.03044 -0.00190851 -1.38328e-19)
(5.03319 -0.0016292 -1.37754e-19)
(5.03566 -0.00138076 0)
(5.03787 -0.0011595 0)
(5.03983 -0.000962332 -2.72147e-19)
(5.04157 -0.000786607 0)
(5.04311 -0.000630048 2.69966e-19)
(5.04445 -0.000490648 2.68876e-19)
(5.04562 -0.000366619 0)
(5.04663 -0.000256347 0)
(5.0475 -0.000158372 -2.6571e-19)
(5.04822 -7.13583e-05 -9.83039e-24)
(5.04882 5.91465e-06 -8.78387e-24)
(5.04931 7.45648e-05 0)
(5.04969 0.00013562 -5.23192e-19)
(5.04998 0.000190027 0)
(5.05018 0.000238664 0)
(5.05029 0.000282347 0)
(5.05034 0.000321841 2.57572e-19)
(5.05031 0.000357873 0)
(5.05022 0.00039115 -5.11167e-19)
(5.05007 0.000422377 -2.54601e-19)
(5.04987 0.000452294 0)
(5.04962 0.000481701 -2.52642e-19)
(5.04931 0.000511496 0)
(5.04896 0.000542729 0)
(5.04857 0.000576646 -7.492e-19)
(5.04813 0.000614749 4.97545e-19)
(5.04765 0.000658867 0)
(5.04711 0.000711246 4.93732e-19)
(5.04653 0.000774664 -2.45925e-19)
(5.04589 0.00085258 0)
(5.04519 0.000949329 0)
(5.04441 0.00107038 0)
(5.04354 0.0012227 -7.26645e-19)
(5.04255 0.0014152 0)
(5.04143 0.00165941 -2.4043e-19)
(5.04014 0.00197038 0)
(5.03863 0.00236795 0)
(5.03684 0.00287865 0)
(5.0347 0.0035384 0)
(5.0321 0.0043967 0)
(5.02891 0.00552301 0)
(5.02493 0.00701725 -4.69905e-19)
(5.01993 0.0090263 0)
(5.01358 0.0117759 -2.34017e-19)
(5.00539 0.0156142 7.00925e-19)
(4.99478 0.021147 0)
(4.98074 0.0292937 0)
(4.96263 0.0421947 -4.67779e-19)
(4.93796 0.0622322 -4.7062e-19)
(4.91026 0.100121 4.70876e-19)
(4.87923 0.159049 4.76299e-19)
(-0.137499 0.512594 -1.31606e-19)
(-0.26943 0.641554 -1.02482e-19)
(-0.431583 0.740139 -5.93376e-20)
(-0.600611 0.820216 -2.74292e-20)
(-0.769927 0.886786 0)
(-0.940812 0.944923 5.06696e-20)
(-1.11433 0.998936 -2.50004e-20)
(-1.29032 1.05147 0)
(-1.46831 1.10358 -2.38357e-20)
(-1.64775 1.15519 0)
(-1.8281 1.20553 4.79064e-20)
(-2.00888 1.25341 0)
(-2.18965 1.29751 2.34975e-20)
(-2.37002 1.3365 4.72363e-20)
(-2.54972 1.36915 -4.76365e-20)
(-2.72856 1.39441 0)
(-2.90647 1.41147 -4.88949e-20)
(-3.08347 1.41975 0)
(-3.25963 1.41892 0)
(-3.43507 1.40885 -5.17867e-20)
(-3.60985 1.3896 0)
(-3.7839 1.36131 -2.50094e-21)
(-3.957 1.32417 0)
(-4.12868 1.27839 0)
(-4.29822 1.22415 2.98215e-21)
(-4.46458 1.16159 -5.95679e-20)
(-4.6264 1.09081 -6.41868e-20)
(-4.78207 1.0119 -6.20677e-20)
(-4.92969 0.924959 0)
(-5.06718 0.830136 -1.3207e-19)
(-5.19231 0.72769 0)
(-5.30279 0.618021 -6.95509e-20)
(-5.39637 0.501704 0)
(-5.47089 0.379521 0)
(-5.52433 0.252429 6.96394e-20)
(-5.55503 0.121559 0)
(-5.56165 -0.0118518 -6.72018e-20)
(-5.54328 -0.146383 4.53737e-21)
(-5.49932 -0.280543 1.19522e-19)
(-5.42957 -0.412696 -1.17451e-19)
(-5.33415 -0.541232 0)
(-5.21352 -0.664625 0)
(-5.06853 -0.781467 -5.04005e-20)
(-4.90031 -0.89049 0)
(-4.71032 -0.990593 -3.32192e-20)
(-4.50027 -1.08086 2.81315e-20)
(-4.2721 -1.16058 2.28435e-20)
(-4.0279 -1.22924 0)
(-3.76992 -1.28658 -1.18197e-20)
(-3.50045 -1.33252 -6.15662e-21)
(-3.22182 -1.36724 5.46107e-21)
(-2.9363 -1.3911 5.31173e-21)
(-2.64608 -1.40468 1.10655e-20)
(-2.3532 -1.40868 0)
(-2.05953 -1.40395 0)
(-1.76672 -1.39138 -2.82037e-20)
(-1.47623 -1.37194 0)
(-1.18928 -1.34656 0)
(-0.906885 -1.31617 9.01132e-20)
(-0.629895 -1.28166 1.01266e-19)
(-0.358979 -1.24386 0)
(-0.0946269 -1.2035 0)
(0.162587 -1.16113 0)
(0.4123 -1.11726 0)
(0.654205 -1.07233 1.37159e-19)
(0.888102 -1.02678 -1.38797e-19)
(1.11386 -0.980969 -1.44474e-19)
(1.3314 -0.93521 -2.92885e-19)
(1.54069 -0.889778 0)
(1.74172 -0.844905 1.78945e-21)
(1.93454 -0.800789 0)
(2.11919 -0.757599 1.55642e-19)
(2.29578 -0.715479 1.48329e-21)
(2.46442 -0.674546 1.57922e-19)