/*--------------------------------*- C++ -*----------------------------------*\
  =========                 |
  \\      /  F ield         | OpenFOAM: The Open Source CFD Toolbox
   \\    /   O peration     | Website:  https://openfoam.org
    \\  /    A nd           | Version:  9
     \\/     M anipulation  |
\*---------------------------------------------------------------------------*/
FoamFile
{
    format      ascii;
    class       volScalarField;
    location    "0.17";
    object      epsilon;
}
// * * * * * * * * * * * * * * * * * * * * * * * * * * * * * * * * * * * * * //

dimensions      [0 2 -3 0 0 0 0];

internalField   nonuniform List<scalar> 
12225
(
210.077
126.736
82.3254
59.0231
46.4907
39.2501
34.5764
31.1965
28.5396
26.3436
24.4748
22.8558
21.4398
20.2032
19.2064
18.5637
19.0399
25.0181
62.5235
55.3781
42.3789
33.4333
27.6964
23.8876
21.2301
19.2684
17.7411
16.5007
15.4602
14.5638
13.7719
13.0493
12.3794
11.7302
11.3126
11.7634
31.7988
33.3982
28.8944
24.3652
20.828
18.1887
16.2114
14.6935
13.4914
12.5111
11.6908
10.9869
10.3665
9.8024
9.27779
8.77759
8.4952
9.42511
21.9802
23.951
22.2105
19.6788
17.3304
15.3804
13.8126
12.5533
11.529
10.6822
9.96989
9.3599
8.82667
8.34914
7.91932
7.53945
7.35356
7.90858
17.8831
19.1316
18.3192
16.7666
15.1275
13.6423
12.3715
11.3048
10.4112
9.65807
9.01765
8.46699
7.98732
7.56377
7.19255
6.8858
6.74651
7.0646
15.9118
16.43
15.8811
14.8095
13.5971
12.4303
11.382
10.4682
9.6808
9.0037
8.41996
7.91415
7.47314
7.0871
6.75469
6.49247
6.3713
6.55329
14.8914
14.8359
14.297
13.4487
12.4873
11.5347
10.6509
9.85823
9.1589
8.54631
8.01083
7.54257
7.13275
6.77531
6.4706
6.23414
6.11418
6.20373
14.3447
13.8721
13.2521
12.491
11.67
10.8565
10.0909
9.39177
8.76428
8.20633
7.71265
7.27702
6.89378
6.55936
6.27513
6.05282
5.92476
5.94508
14.0479
13.2861
12.5625
11.8181
11.0683
10.3407
9.65646
9.02703
8.45633
7.94359
7.4856
7.0783
6.71799
6.40257
6.13356
5.91937
5.78033
5.74849
13.8867
12.932
12.1119
11.3509
10.6302
9.9515
9.32038
8.74061
8.21309
7.73646
7.30808
6.92488
6.58415
6.28448
6.02702
5.81736
5.66807
5.59856
13.7996
12.7214
11.8229
11.0327
10.3173
9.66292
9.06401
8.51773
8.02152
7.57256
7.16784
6.80444
6.48
6.19322
5.94462
5.73756
5.57969
5.48306
13.7567
12.6086
11.657
10.8392
10.1177
9.4716
8.88879
8.36183
7.88535
7.45496
7.06689
6.71795
6.40567
6.12853
5.88646
5.6813
5.51794
5.40467
13.7322
12.5397
11.5494
10.7073
9.97589
9.33085
8.75623
8.24129
7.77835
7.36155
6.98626
6.64882
6.34643
6.07725
5.84057
5.63712
5.47001
5.34441
13.7175
12.4958
11.4766
10.613
9.86973
9.22138
8.64982
8.14205
7.68856
7.28212
6.91721
6.58952
6.29578
6.03368
5.80187
5.60019
5.43038
5.29566
13.7096
12.4709
11.4328
10.5531
9.79886
9.14517
8.57312
8.06853
7.62066
7.22129
6.86405
6.54403
6.25741
6.00137
5.77397
5.57427
5.40302
5.26188
13.7059
12.4585
11.4099
10.5201
9.75797
9.09937
8.52547
8.0217
7.57674
7.18173
6.82976
6.51536
6.23427
5.98319
5.75964
5.56212
5.39059
5.24556
13.7044
12.4532
11.3998
10.505
9.73863
9.07712
8.50192
7.99846
7.55521
7.16306
6.81473
6.50444
6.22756
5.98041
5.76013
5.56477
5.39375
5.24671
13.7039
12.4514
11.3964
10.5001
9.73256
9.07052
8.49557
7.99317
7.55174
7.16203
6.81664
6.50955
6.23593
5.99186
5.77421
5.58071
5.41042
5.26238
13.7039
12.4517
11.3972
10.5019
9.7358
9.07553
8.5026
8.00241
7.56332
7.17603
6.83303
6.52827
6.25679
6.01456
5.79832
5.60561
5.43531
5.28609
13.7052
12.456
11.406
10.5159
9.75494
9.09915
8.52973
8.032
7.59438
7.20769
6.86458
6.55911
6.28646
6.04267
5.82453
5.62954
5.45648
5.30421
13.7097
12.4707
11.4333
10.5555
9.80452
9.15551
8.58954
8.09233
7.65297
7.26295
6.91545
6.60496
6.32696
6.07772
5.85414
5.65377
5.47536
5.31801
13.7246
12.516
11.5106
10.6588
9.92445
9.28277
8.71655
8.21361
7.76493
7.36352
7.00391
6.68131
6.39166
6.13147
5.89776
5.68808
5.50107
5.33608
13.7692
12.6395
11.7021
10.8932
10.1769
9.53386
8.95349
8.42924
7.95618
7.52995
7.14633
6.80165
6.49223
6.2146
5.96564
5.74269
5.54405
5.3692
13.8933
12.9423
12.1238
11.3651
10.6481
9.97408
9.34822
8.77401
8.25221
7.78148
7.35885
6.9805
6.64257
6.34117
6.0725
5.83321
5.62093
5.43499
14.2185
13.6253
12.9713
12.2303
11.4509
10.6814
9.95396
9.2854
8.68177
8.1426
7.66409
7.24087
6.86698
6.537
6.24585
5.98889
5.76259
5.56576
15.0371
15.0823
14.5744
13.7229
12.7412
11.7593
10.8432
10.0197
9.29403
8.66073
8.11042
7.63289
7.21825
6.85746
6.54329
6.26934
6.03042
5.82433
17.0942
18.1446
17.5388
16.237
14.7749
13.3859
12.1554
11.0999
10.2065
9.45318
8.81718
8.27839
7.82025
7.42886
7.09268
6.8038
6.55487
6.3421
22.6646
24.8664
23.1755
20.593
18.1118
15.9925
14.262
12.8708
11.7524
10.8474
10.1082
9.49864
8.99215
8.56828
8.21108
7.90807
7.65158
7.43487
41.216
41.5843
35.2008
29.2245
24.5741
21.0858
18.4937
16.5559
15.0831
13.9417
13.0402
12.317
11.7309
11.2533
10.8608
10.5365
10.2676
10.0464
136.073
97.1953
71.698
54.8836
43.7451
36.3122
31.2687
27.746
25.1958
23.283
21.8037
20.6321
19.6991
18.9542
18.3486
17.8525
17.4478
17.127
8.17511
3.69038
4.75954
5.60614
6.29002
6.84664
7.30047
7.66954
7.96773
8.20621
8.39452
8.54165
8.65768
8.75685
8.84401
8.91346
8.95986
8.98439
8.95346
8.63627
8.50392
8.81653
9.04257
38.909
8.83319
38.7761
40.2359
40.8253
41.0725
8.64225
39.2147
40.976
42.1618
41.9096
9.27238
41.4964
45.2356
49.4419
54.0061
58.8671
63.9676
69.252
74.6677
80.1665
85.7053
91.247
96.7604
102.22
107.605
112.9
118.092
123.175
128.142
132.989
137.714
142.316
146.795
151.151
155.384
159.495
163.482
167.346
171.087
174.704
178.198
181.568
184.817
187.948
190.968
193.887
196.722
199.492
202.227
204.867
207.363
209.711
211.907
213.944
215.811
217.498
218.993
220.28
221.347
222.177
222.751
223.053
223.062
222.757
222.116
221.119
219.741
217.96
215.754
213.101
209.982
206.379
202.278
197.668
192.546
186.915
180.784
174.176
167.119
159.657
151.843
143.742
135.432
126.999
118.536
110.143
101.919
93.9621
86.3666
79.2223
72.6255
66.6883
61.5333
57.2869
54.1145
52.7678
57.0244
54.9432
53.7729
12.3627
12.3005
12.7165
12.5629
56.3311
54.6776
12.3696
12.2948
12.3504
12.4436
12.5412
12.4492
12.737
58.049
57.5322
13.5381
13.602
13.6738
13.6966
13.6061
13.3204
60.9451
61.1027
14.2036
13.3097
13.6121
62.5217
14.545
14.1079
63.2951
14.7688
64.5483
14.9584
14.9358
13.8241
15.1727
15.454
14.6297
66.817
15.8106
15.52
15.0851
14.6242
14.1638
13.702
13.2447
12.7973
12.3642
11.948
11.5497
11.1683
10.8013
10.4439
10.0889
9.72673
9.33693
8.91346
11.1592
7.93448
7.47121
7.34413
7.28535
7.25088
7.23362
7.23339
7.25184
7.29157
7.35613
7.4508
7.58402
7.76991
8.01998
8.34307
8.75748
9.29808
10.0285
11.0128
12.062
13.1524
14.7883
18.3839
19.5025
23.0649
25.4911
27.5289
29.3124
30.1406
33.8923
36.1849
37.9059
39.1229
39.6703
43.277
45.2544
46.9229
48.4677
49.9192
51.2923
52.6004
53.8557
55.0681
56.2454
57.3931
58.5151
59.6138
60.6905
61.7457
62.7797
63.792
64.7822
65.7498
66.6943
67.6151
68.5117
69.3837
70.2307
71.0524
71.8489
72.6201
73.3666
74.089
74.7887
75.4677
76.1293
76.7779
77.4202
78.0656
78.7273
79.4224
80.1507
80.8566
81.5281
82.1615
82.7539
83.302
83.8021
84.2499
84.6409
84.97
85.2315
85.4194
85.5272
85.5479
85.4738
85.2971
85.0095
84.6023
84.0666
83.3934
82.5739
81.5994
80.4616
79.1532
77.6679
76.0009
74.1493
72.1126
69.8933
67.4969
64.9331
62.2154
59.3618
56.3947
53.3411
50.2316
47.1005
43.9845
40.9217
37.9509
35.1104
32.4378
29.9698
27.7422
25.7858
24.1203
22.7509
21.7394
21.5823
20.5728
19.2521
15.6032
14.6916
13.7637
15.0377
17.9111
16.8006
12.5625
12.2097
12.1226
12.1465
12.4963
13.5892
13.9994
16.8445
15.5851
10.6621
10.3951
10.5197
10.8946
11.8147
13.9208
17.3387
16.4389
12.112
13.6828
14.0434
16.5238
11.6293
12.6338
16.861
12.3439
16.8295
11.1137
11.3305
12.8498
10.6374
10.5158
11.2337
17.2978
10.2973
9.64265
9.30597
8.98034
8.66074
8.34295
8.03019
7.72611
7.43364
7.15466
6.88993
6.63907
6.40059
6.17211
5.95044
5.73333
5.52195
5.36412
16.5656
10.9377
9.58948
8.98479
8.62294
8.38082
8.21693
8.11489
8.06895
8.07925
8.15022
8.2905
8.51363
8.83641
9.26977
9.83452
10.5573
11.4705
12.6112
14.0002
15.5945
17.3911
19.4865
21.8628
24.1723
26.6154
28.8999
31.0019
32.9131
34.6281
36.3582
37.723
38.7908
39.6604
40.4586
41.4194
42.1631
42.8149
43.4358
44.0474
44.6593
45.276
45.8986
46.5255
47.1535
47.7782
48.3953
49.0005
49.5903
50.1619
50.7133
51.2432
51.7512
52.2373
52.702
53.1462
53.571
53.9777
54.3678
54.7428
55.1045
55.4547
55.7952
56.1282
56.4558
56.7805
57.1049
57.4317
57.7641
58.1051
58.4576
58.824
59.1935
59.5537
59.9
60.2299
60.5414
60.8326
61.1012
61.3447
61.5601
61.7442
61.8934
62.0038
62.0708
62.0896
62.0549
61.9612
61.8022
61.5716
61.2626
60.8682
60.3811
59.7943
59.1005
58.293
57.3657
56.3129
55.1306
53.8157
52.3673
50.7866
49.0773
47.2461
45.3029
43.2609
41.137
38.951
36.7263
34.4885
32.2655
30.0862
27.9799
25.9752
24.0991
22.3751
20.8209
19.4435
18.235
17.1895
16.3369
15.484
14.6323
13.6223
12.9781
12.4651
12.4383
12.5182
12.0464
11.239
10.9736
10.805
10.6881
10.6706
10.7719
10.7108
10.8437
10.3809
9.49836
9.36829
9.40439
9.55659
9.8683
10.3367
10.7432
10.5155
9.98752
10.3618
10.3953
10.4995
9.78232
10.0448
10.5569
9.90105
10.4155
9.44654
9.49586
9.77911
9.07215
8.91871
9.10961
9.93014
8.37991
7.95097
7.65288
7.36469
7.08036
6.79726
6.51853
6.24794
5.9887
5.74309
5.51225
5.29621
5.09396
4.90363
4.72286
4.5501
4.38871
4.26097
22.4176
13.6765
11.4815
10.5203
9.98025
9.64377
9.43264
9.31519
9.27968
9.3251
9.45761
9.68938
10.0383
10.5107
11.1271
11.9116
12.8918
14.0945
15.5438
17.2193
19.0859
21.11
23.2493
25.4338
27.5645
29.5865
31.4196
33.0242
34.3902
35.5306
36.4755
37.2145
37.8008
38.3022
38.7765
39.2563
39.714
40.1735
40.6512
41.1514
41.6719
42.2073
42.7507
43.2948
43.8328
44.3583
44.8664
45.3531
45.8157
46.2525
46.6629
47.0471
47.4059
47.7406
48.0528
48.3444
48.6175
48.8741
49.1164
49.3466
49.5667
49.779
49.9855
50.1882
50.389
50.5898
50.7925
50.9985
51.2093
51.426
51.6493
51.8791
52.1119
52.3415
52.5652
52.7818
52.9899
53.1882
53.3753
53.5494
53.7086
53.8507
53.973
54.0726
54.1461
54.1897
54.1992
54.17
54.0971
53.9749
53.7975
53.5585
53.2513
52.869
52.4045
51.8508
51.2009
50.4484
49.5872
48.6126
47.5207
46.3096
44.9791
43.5315
41.9719
40.3083
38.5518
36.7172
34.8221
32.8874
30.9365
28.9948
27.0886
25.2446
23.4878
21.8408
20.3211
18.9385
17.6921
16.577
15.5928
14.7138
13.9231
13.1948
12.5937
12.0971
11.7598
11.4683
11.1115
10.7337
10.4738
10.2586
10.074
9.92809
9.8112
9.66074
9.52829
9.30607
9.04467
8.9511
8.92565
8.95006
9.02199
9.11347
9.15497
9.09459
9.02122
9.11032
9.09484
9.05286
8.91458
8.9706
9.02697
8.88276
8.91624
8.68864
8.66319
8.6613
8.37562
8.22887
8.18501
8.16687
7.61744
7.29623
7.01047
6.72814
6.4463
6.16454
5.88665
5.61702
5.35953
5.11706
4.89133
4.6828
4.49081
4.31381
4.14977
3.9973
3.85922
3.74674
28.4106
16.3775
13.4
12.1331
11.4535
11.0553
10.8262
10.7203
10.7198
10.822
11.0338
11.3695
11.8352
12.4449
13.2201
14.176
15.33
16.6901
18.2501
19.9834
21.8462
23.7813
25.7221
27.5974
29.3406
30.9024
32.2486
33.3693
34.2783
35.0066
35.5925
36.074
36.4965
36.9017
37.3181
37.7578
38.2209
38.7103
39.2257
39.7624
40.3133
40.8702
41.4251
41.9702
42.4993
43.007
43.4893
43.9436
44.368
44.7622
45.1262
45.4609
45.7679
46.0488
46.3058
46.541
46.7568
46.9555
47.1393
47.3106
47.4715
47.6242
47.7706
47.9126
48.0519
48.1902
48.3287
48.4689
48.6116
48.7576
48.9074
49.0613
49.2192
49.3773
49.5338
49.6879
49.8388
49.9857
50.1278
50.264
50.3931
50.5136
50.6236
50.7212
50.8036
50.8681
50.9114
50.9296
50.9185
50.8734
50.789
50.6596
50.4788
50.2401
49.9363
49.5601
49.1039
48.5603
47.9218
47.1817
46.3339
45.3734
44.2967
43.1024
41.7912
40.3665
38.8349
37.2063
35.4942
33.7153
31.8898
30.0407
28.1929
26.3727
24.6059
22.917
21.3269
19.851
18.4971
17.2677
16.1651
15.1865
14.3225
13.5619
12.9053
12.3441
11.88
11.4745
11.0979
10.7537
10.4619
10.2049
9.97587
9.77415
9.59307
9.41641
9.2537
9.09059
8.94025
8.84355
8.78028
8.7431
8.72647
8.71688
8.69558
8.66296
8.64035
8.65054
8.6274
8.59225
8.55058
8.55109
8.53919
8.48345
8.45199
8.36378
8.31049
8.24215
8.07696
7.93494
7.80772
7.63693
7.31683
7.03371
6.74669
6.4576
6.16516
5.87119
5.58046
5.29819
5.02911
4.77689
4.54388
4.33107
4.13819
3.96395
3.80656
3.66461
3.54001
3.43827
34.4117
19.1195
15.4161
13.873
13.072
12.6253
12.3892
12.3037
12.3448
12.5061
12.7924
13.2091
13.7558
14.4492
15.3045
16.3319
17.5348
18.9058
20.4233
22.0509
23.7389
25.429
27.0604
28.5776
29.9374
31.1146
32.1028
32.9142
33.5762
34.1252
34.5995
35.0348
35.4619
35.9042
36.3747
36.8776
37.4111
37.9713
38.5522
39.1465
39.746
40.3426
40.929
41.4985
42.0457
42.5663
43.0573
43.5165
43.9431
44.3367
44.6979
45.0278
45.3279
45.6001
45.8464
46.0692
46.2706
46.4529
46.6184
46.7692
46.9076
47.0355
47.1547
47.2671
47.3742
47.4776
47.5786
47.6784
47.778
47.8783
47.9802
48.0842
48.191
48.2997
48.409
48.5179
48.6263
48.7337
48.8398
48.9442
49.0463
49.1453
49.2401
49.3294
49.4115
49.4844
49.5458
49.5926
49.6216
49.6289
49.61
49.5599
49.4728
49.3427
49.1626
48.9251
48.6223
48.2461
47.7879
47.2394
46.5923
45.839
44.973
43.989
42.8836
41.6559
40.3076
38.8438
37.2735
35.6093
33.8678
32.0693
30.2376
28.3984
26.5793
24.8072
23.1076
21.5017
20.0052
18.6284
17.3788
16.2595
15.2674
14.3956
13.6361
12.9777
12.4108
11.9162
11.4784
11.0901
10.7488
10.4455
10.1746
9.93286
9.71562
9.51723
9.33918
9.17911
9.03926
8.92724
8.83756
8.76665
8.71084
8.66437
8.62194
8.5849
8.55701
8.53833
8.51061
8.48045
8.45322
8.43559
8.41045
8.37141
8.33024
8.2693
8.20503
8.12028
7.99109
7.85043
7.69439
7.4953
7.23361
6.95894
6.66431
6.36267
6.05359
5.74089
5.43041
5.12839
4.84053
4.57141
4.32414
4.10033
3.90012
3.72251
3.5659
3.4288
3.31218
3.21819
40.4047
21.9583
17.537
15.7235
14.8068
14.3165
14.0762
14.0103
14.0859
14.2911
14.6255
15.076
15.6543
16.3709
17.2334
18.2438
19.3957
20.6724
22.0458
23.4774
24.921
26.3279
27.6523
28.8577
29.9214
30.8364
31.6111
32.2665
32.8313
33.3373
33.8147
34.2885
34.7776
35.2939
35.8424
36.4225
37.0302
37.6593
38.3027
38.9526
39.6014
40.2416
40.8668
41.4713
42.0504
42.6005
43.119
43.6042
44.0553
44.472
44.855
45.2052
45.5241
45.8132
46.0744
46.3099
46.5217
46.7119
46.8826
47.0357
47.1734
47.2974
47.4095
47.5113
47.6045
47.6905
47.7705
47.846
47.9179
47.9873
48.0554
48.1231
48.1911
48.2605
48.3306
48.4007
48.4708
48.541
48.6112
48.6817
48.7524
48.8232
48.8937
48.9634
49.0316
49.0971
49.1584
49.2137
49.2606
49.2963
49.3172
49.3193
49.2979
49.2474
49.1616
49.0334
48.855
48.6179
48.313
47.9306
47.461
46.8942
46.2208
45.4319
44.5202
43.4802
42.3087
41.0057
39.5749
38.0243
36.3661
34.6173
32.7995
30.9378
29.0605
27.1972
25.3774
23.6282
21.9725
20.4282
19.0088
17.7229
16.5724
15.5543
14.6622
13.8832
13.2049
12.6125
12.093
11.6358
11.2328
10.8759
10.5586
10.2763
10.0245
9.7994
9.59967
9.42348
9.26966
9.13828
9.02663
8.93237
8.85298
8.78552
8.72792
8.67932
8.63902
8.60456
8.57003
8.53706
8.50721
8.47986
8.44837
8.40982
8.36462
8.3068
8.23686
8.14686
8.02769
7.88642
7.71953
7.51422
7.26584
6.98756
6.68379
6.36687
6.03849
5.7039
5.37001
5.04416
4.73312
4.4425
4.17632
3.93687
3.7248
3.53944
3.37932
3.24283
3.13013
3.04122
45.9532
24.7667
19.6732
17.6008
16.5732
16.0415
15.7965
15.7456
15.8457
16.0782
16.4195
16.8724
17.4423
18.1339
18.9482
19.8811
20.9209
22.0479
23.234
24.4452
25.6439
26.7941
27.8652
28.8362
29.6981
30.454
31.1174
31.7092
32.2539
32.7755
33.2952
33.829
34.3878
34.977
35.5973
36.246
36.9178
37.6065
38.3047
39.0052
39.701
40.3856
41.053
41.6983
42.3173
42.9068
43.4642
43.9881
44.4774
44.932
45.3522
45.7386
46.0924
46.415
46.7079
46.9729
47.2117
47.4263
47.6184
47.7898
47.9423
48.0776
48.1973
48.3029
48.3959
48.4776
48.5493
48.6124
48.668
48.7173
48.7614
48.8015
48.8388
48.8743
48.9092
48.9431
48.9757
49.0076
49.0391
49.0709
49.1034
49.1372
49.1727
49.21
49.2493
49.2903
49.3326
49.3754
49.4174
49.4569
49.4918
49.519
49.535
49.5355
49.515
49.4675
49.3856
49.2612
49.0849
48.8466
48.5354
48.1395
47.6471
47.0462
46.3258
45.4756
44.4876
43.3563
42.0796
40.6598
39.1041
37.425
35.6407
33.7744
31.8542
29.9113
27.9787
26.0889
24.2713
22.5515
20.9498
19.4808
18.1525
16.966
15.9195
15.0002
14.1954
13.4913
12.8747
12.3338
11.8584
11.4393
11.069
10.7411
10.4506
10.1931
9.96569
9.76557
9.5902
9.43754
9.30516
9.19089
9.09255
9.00797
8.93565
8.87377
8.82039
8.77325
8.72967
8.68939
8.65208
8.61595
8.57748
8.53413
8.48383
8.42282
8.34823
8.25478
8.137
7.99396
7.82173
7.61308
7.36472
7.0792
6.76615
6.43369
6.08549
5.72794
5.36897
5.01701
4.68003
4.36479
4.0763
3.81767
3.59014
3.39339
3.22613
3.08662
2.97433
2.88785
50.9359
27.3818
21.7061
19.3994
18.2701
17.7007
17.4507
17.4105
17.5261
17.7578
18.0931
18.5299
19.0683
19.7075
20.4443
21.2714
22.1758
23.1389
24.1368
25.1427
26.129
27.0712
27.9506
28.7566
29.488
30.1515
30.761
31.3338
31.8885
32.4424
33.0094
33.5995
34.2185
34.8681
35.5471
36.2517
36.9764
37.715
38.4608
39.207
39.9472
40.6756
41.3867
42.0759
42.7394
43.374
43.9774
44.5478
45.0842
45.5861
46.0535
46.4867
46.8865
47.254
47.5903
47.8967
48.1748
48.4261
48.6519
48.854
49.0337
49.1924
49.3317
49.4528
49.5569
49.6455
49.7197
49.7806
49.8294
49.8674
49.8957
49.9155
49.9281
49.9346
49.9373
49.9363
49.9315
49.9236
49.9133
49.9015
49.8892
49.8775
49.8674
49.8598
49.8557
49.8557
49.8604
49.87
49.8846
49.9036
49.9263
49.951
49.9757
49.9973
50.0119
50.0147
49.9995
49.9589
49.8842
49.7655
49.5912
49.3488
49.0245
48.6041
48.0728
47.4164
46.6217
45.6775
44.5758
43.3125
41.8883
40.3103
38.5917
36.7524
34.8187
32.8221
30.798
28.7831
26.8131
24.9206
23.1337
21.4741
19.9562
18.5868
17.3691
16.2929
15.3463
14.516
13.7887
13.1516
12.5933
12.1031
11.672
11.2925
10.9579
10.6629
10.4032
10.1749
9.97456
9.79911
9.6458
9.51215
9.39588
9.29483
9.20727
9.13127
9.06448
9.00478
8.95033
8.9001
8.85297
8.80711
8.75997
8.70914
8.65204
8.58539
8.50568
8.40838
8.28879
8.14331
7.96745
7.7555
7.50343
7.21137
6.88987
6.54311
6.1761
5.79605
5.41182
5.03287
4.6684
4.32641
4.01305
3.73238
3.48632
3.275
3.09729
2.95142
2.83627
2.7495
55.2529
29.7232
23.5626
21.0401
19.8133
19.2068
18.9507
18.9181
19.034
19.2634
19.5908
20.0076
20.5085
21.0889
21.743
22.4625
23.2357
24.0471
24.8788
25.7115
26.5265
27.3086
28.0473
28.7385
29.3843
29.9926
30.5749
31.1449
31.7162
32.3004
32.9069
33.5415
34.2069
34.9031
35.6276
36.3762
37.1436
37.9239
38.7108
39.4981
40.2799
41.0507
41.8054
42.5397
43.2499
43.9328
44.586
45.2077
45.7966
46.3518
46.8729
47.3601
47.8136
48.234
48.6221
48.979
49.3055
49.6029
49.8723
50.1149
50.3318
50.5242
50.6932
50.8398
50.9653
51.0706
51.1567
51.2247
51.2756
51.3106
51.3307
51.3371
51.3311
51.314
51.2872
51.2532
51.2117
51.1633
51.109
51.05
50.9876
50.9233
50.8588
50.7956
50.7354
50.6796
50.6298
50.5874
50.5534
50.5288
50.5141
50.5092
50.5137
50.5262
50.5446
50.5655
50.5847
50.5961
50.5923
50.5642
50.5008
50.3894
50.2153
49.9626
49.6139
49.1513
48.557
47.8142
46.9085
45.8288
44.5688
43.1285
41.5148
39.7426
37.8345
35.8208
33.7373
31.6239
29.5217
27.4701
25.5048
23.6552
21.9435
20.3834
18.9823
17.736
16.634
15.6642
14.8134
14.0685
13.4168
12.8464
12.3469
11.9091
11.525
11.1878
10.8919
10.6322
10.4045
10.2047
10.0296
9.87622
9.74177
9.62385
9.52039
9.42953
9.34864
9.27562
9.20875
9.14666
9.08798
9.03094
8.97344
8.9132
8.84767
8.77378
8.68796
8.58597
8.46315
8.3149
8.13612
7.92116
7.66508
7.36982
7.04115
6.68235
6.29873
5.89796
5.48953
5.0839
4.69143
4.32144
3.98137
3.67634
3.4091
3.1803
2.98909
2.83367
2.71251
2.62272
58.8239
31.736
25.1909
22.461
21.1362
20.4912
20.228
20.1954
20.3174
20.5542
20.8822
21.2867
21.7582
22.2891
22.8724
23.4999
24.1621
24.8477
25.5443
26.2393
26.9216
27.5826
28.2176
28.8261
29.4121
29.9828
30.5477
31.1172
31.7009
32.307
32.9413
33.6073
34.3058
35.0356
35.7939
36.5762
37.3776
38.1922
39.0144
39.8382
40.6582
41.4691
42.2662
43.0451
43.8024
44.5347
45.2395
45.9148
46.559
47.1709
47.7498
48.2954
48.8076
49.2865
49.7325
50.1462
50.5281
50.879
51.1995
51.4906
51.7531
51.9876
52.195
52.3761
52.5317
52.6625
52.7694
52.8531
52.9144
52.9544
52.9738
52.9738
52.9554
52.92
52.8686
52.8048
52.7285
52.6405
52.5418
52.4337
52.318
52.1965
52.0713
51.9443
51.818
51.6945
51.5763
51.4657
51.3648
51.276
51.201
51.1414
51.0984
51.0725
51.0634
51.0699
51.0897
51.1189
51.1519
51.1814
51.1976
51.1887
51.1403
51.0356
50.8557
50.58
50.1866
49.6538
48.9606
48.0888
47.0243
45.7589
44.2919
42.631
40.7937
38.8065
36.7043
34.5284
32.3238
30.1362
28.0087
25.9786
24.0765
22.3238
20.7333
19.3079
18.04
16.9193
15.9337
15.0699
14.3147
13.6553
13.0796
12.5768
12.1376
11.7536
11.4177
11.1238
10.8665
10.6408
10.4428
10.2688
10.1155
9.98008
9.85999
9.75345
9.6576
9.57022
9.48954
9.41405
9.34226
9.27255
9.20307
9.13176
9.05624
8.97366
8.88061
8.77298
8.64612
8.49491
8.31377
8.09654
7.83904
7.54289
7.20958
6.84184
6.44481
6.02615
5.59575
5.16482
4.74487
4.34652
3.97858
3.6474
3.3567
3.10781
2.90024
2.73228
2.6021
2.50651
61.57
33.3665
26.5256
23.6036
22.1852
21.5058
21.2353
21.2144
21.358
21.6164
21.9591
22.3663
22.8249
23.3252
23.859
24.4191
24.998
25.5881
26.182
26.7726
27.3544
27.9239
28.4805
29.0263
29.5659
30.106
30.6546
31.2195
31.8079
32.4253
33.0757
33.7606
34.4801
35.2323
36.0139
36.8208
37.6481
38.4902
39.3419
40.1975
41.0517
41.8997
42.7367
43.5586
44.3617
45.1428
45.8991
46.6283
47.3287
47.9987
48.6374
49.2438
49.8175
50.3583
50.8661
51.341
51.7831
52.1928
52.5704
52.9163
53.2308
53.5145
53.7676
53.9907
54.1841
54.3484
54.484
54.5913
54.671
54.7237
54.75
54.7508
54.727
54.6796
54.6097
54.5201
54.4126
54.2875
54.1459
53.9893
53.8196
53.6389
53.4494
53.2538
53.0547
52.8552
52.6583
52.4671
52.2848
52.1149
51.9603
51.8243
51.7096
51.6184
51.5528
51.5136
51.5007
51.5128
51.5468
51.5977
51.6581
51.7178
51.7638
51.7799
51.7468
51.6423
51.4417
51.1187
50.6468
50.0006
49.1576
48.1009
46.8206
45.3159
43.5967
41.684
39.6096
37.4142
35.1453
32.8534
30.5888
28.3964
26.3152
24.3754
22.5961
20.9877
19.5469
18.2667
17.1365
16.144
15.2761
14.5191
13.8596
13.2853
12.7854
12.35
11.9705
11.6394
11.3502
11.097
10.8747
10.6791
10.5062
10.3525
10.2151
10.092
9.98026
9.87749
9.78178
9.69151
9.60521
9.52137
9.43839
9.35445
9.26743
9.17476
9.07326
8.95902
8.82742
8.67311
8.49012
8.27201
8.01648
7.72135
7.3864
7.01344
6.6069
6.1741
5.72495
5.27119
4.82527
4.39908
4.00286
3.64433
3.32834
3.05708
2.83054
2.64721
2.50515
2.40101
63.296
34.5262
27.4954
24.4287
22.942
22.2393
21.9778
21.985
22.1646
22.4589
22.8318
23.2593
23.7248
24.2166
24.7259
25.2456
25.7702
26.295
26.8161
27.3311
27.8386
28.339
28.8348
29.3298
29.8297
30.341
30.8704
31.4244
32.0085
32.6269
33.282
33.9747
34.7043
35.4685
36.2641
37.0871
37.9325
38.7954
39.6706
40.5526
41.4366
42.3175
43.191
44.0528
44.8993
45.727
46.5331
47.3151
48.0708
48.7986
49.4969
50.1647
50.801
51.4052
51.9768
52.5154
53.0208
53.4928
53.9315
54.3366
54.7082
55.0464
55.351
55.6222
55.8601
56.0646
56.2359
56.3741
56.4795
56.5524
56.593
56.602
56.5799
56.5276
56.446
56.3364
56.2025
56.0446
55.8638
55.6614
55.4395
55.2003
54.9463
54.6804
54.4057
54.1256
53.8437
53.5639
53.2902
53.0269
52.7782
52.5486
52.3423
52.1634
52.0158
51.9026
51.8262
51.7879
51.7875
51.8229
51.8895
51.9801
52.084
52.1869
52.2704
52.3122
52.2862
52.1629
51.9109
51.4984
50.8947
50.0735
49.0148
47.7078
46.1531
44.364
42.3666
40.1994
37.9104
35.5528
33.185
30.8564
28.6158
26.5027
24.5422
22.7526
21.1367
19.6918
18.4101
17.2803
16.2915
15.4292
14.6786
14.0263
13.4603
12.9689
12.542
12.1708
11.8474
11.5648
11.317
11.0987
10.9052
10.7326
10.5771
10.4367
10.3082
10.1891
10.0773
9.97104
9.86896
9.76967
9.67176
9.57373
9.47377
9.36961
9.25839
9.13648
8.99942
8.84173
8.6572
8.44123
8.1891
7.89721
7.56388
7.18968
6.77801
6.33548
5.87167
5.39849
4.92909
4.47653
4.05244
3.666
3.3234
3.02785
2.78003
2.57878
2.42214
2.30682
64.2432
35.2972
28.1656
24.9875
23.4456
22.7342
22.494
22.5393
22.7651
23.1073
23.5244
23.9884
24.4797
24.9844
25.4928
25.9978
26.4949
26.9813
27.456
27.9195
28.3739
28.8225
29.2701
29.7224
30.186
30.6675
31.1735
31.7097
32.2809
32.8903
33.5399
34.2299
34.9594
35.7261
36.5268
37.3574
38.2135
39.0902
39.9824
40.8851
41.7933
42.7024
43.6078
44.5053
45.3913
46.2622
47.1151
47.947
48.7558
49.5393
50.2958
51.0237
51.7219
52.3893
53.0249
53.6279
54.1978
54.734
55.2359
55.7031
56.135
56.5314
56.8918
57.2159
57.5032
57.7535
57.9664
58.1418
58.2795
58.3793
58.4413
58.4656
58.4525
58.4025
58.3161
58.194
58.0403
57.8555
57.6407
57.3973
57.1273
56.8331
56.5171
56.1826
55.8328
55.4715
55.1027
54.7307
54.3602
53.9962
53.644
53.309
52.9968
52.7131
52.4633
52.2529
52.0864
51.968
51.9005
51.8848
51.92
52.0023
52.1244
52.275
52.4381
52.593
52.7136
52.769
52.7244
52.5423
52.1848
51.6162
50.8058
49.7317
48.3835
46.7645
44.8935
42.8037
40.543
38.1624
35.7332
33.3075
30.9378
28.6702
26.54
24.5749
22.7853
21.174
19.7375
18.4673
17.3521
16.378
15.5299
14.7929
14.1557
13.6039
13.1259
12.7115
12.3515
12.0376
11.7628
11.5207
11.3058
11.1135
10.9395
10.781
10.635
10.4987
10.3698
10.2466
10.1277
10.0117
9.89759
9.78412
9.66983
9.5528
9.43059
9.29988
9.15653
8.99501
8.81066
8.59757
8.35014
8.06368
7.73512
7.36366
6.95144
6.50399
6.0302
5.5418
5.05233
4.57576
4.12506
3.71091
3.34098
3.01969
2.74864
2.5272
2.35356
2.22457
64.4746
35.7535
28.6009
25.3384
23.7561
23.045
22.832
22.9213
23.2
23.5982
24.0698
24.5828
25.1149
25.65
26.1771
26.6887
27.1806
27.6513
28.1014
28.5335
28.9521
29.3628
29.7722
30.1878
30.6172
31.0677
31.5461
32.0581
32.6083
33.1998
33.8343
34.5121
35.232
35.992
36.789
37.6191
38.4781
39.3611
40.2635
41.1803
42.1068
43.0381
43.97
44.8982
45.8189
46.7284
47.6237
48.5016
49.3597
50.1957
51.0073
51.7928
52.5507
53.2793
53.9776
54.6442
55.2782
55.8785
56.4442
56.9744
57.4683
57.9251
58.3438
58.7237
59.0641
59.3643
59.6234
59.841
60.0163
60.149
60.2386
60.2848
60.2876
60.247
60.1633
60.0369
59.8699
59.6649
59.4227
59.1445
58.8324
58.4885
58.1157
57.7169
57.2957
56.856
56.402
55.9385
55.4705
55.0037
54.5439
54.0973
53.6707
53.271
52.9051
52.5802
52.3031
52.0804
51.9178
51.8196
51.7885
51.8245
51.9246
52.0815
52.283
52.5112
52.7421
52.9451
53.0839
53.1171
53.0006
52.6898
52.1437
51.3283
50.2209
48.8134
47.1146
45.1499
42.9693
40.6266
38.1823
35.6967
33.2287
30.8319
28.5505
26.4222
24.4658
22.6911
21.0997
19.6864
18.4414
17.3518
16.4026
15.5787
14.866
14.2497
13.7165
13.256
12.8571
12.51
12.2065
11.9395
11.7025
11.4898
11.2967
11.1195
10.9554
10.8013
10.6546
10.5136
10.3768
10.2432
10.1118
9.9817
9.85182
9.72063
9.58616
9.44548
9.29501
9.13027
8.94595
8.73601
8.49428
8.2151
7.89415
7.52918
7.12088
6.67343
6.1947
5.69584
5.19043
4.69307
4.21786
3.77697
3.37963
3.03172
2.73593
2.49239
2.29961
2.15474
64.0504
36.01
28.878
25.5488
23.9383
23.2345
23.0537
23.1911
23.5272
23.9867
24.5193
25.0897
25.6729
26.2508
26.8109
27.3451
27.8489
28.3214
28.7639
29.1805
29.577
29.9608
30.3401
30.7236
31.1203
31.5383
31.9851
32.467
32.9888
33.554
34.1644
34.8206
35.5217
36.2659
37.0503
37.8714
38.725
39.6069
40.5122
41.4364
42.3746
43.3222
44.2749
45.2284
46.1787
47.1223
48.0556
48.9756
49.8795
50.7646
51.6285
52.4691
53.2845
54.0728
54.8323
55.5616
56.2592
56.9237
57.5537
58.1479
58.7051
59.224
59.7033
60.1418
60.5385
60.892
61.2014
61.4655
61.6834
61.8541
61.9768
62.0509
62.0758
62.0511
61.9768
61.8529
61.6797
61.4609
61.1973
60.8902
60.5415
60.1534
59.7287
59.2704
58.782
58.2676
57.7315
57.1786
56.6144
56.0447
55.4758
54.9147
54.3687
53.8456
53.3538
52.9017
52.4982
52.1517
51.8708
51.6629
51.5342
51.489
51.5286
51.6506
51.8476
52.1062
52.406
52.719
53.0093
53.2337
53.3434
53.2866
53.012
52.4737
51.6354
50.4762
48.9932
47.2129
45.1699
42.913
40.5012
37.9982
35.4684
32.9726
30.5633
28.2875
26.1743
24.2415
22.4967
20.9392
19.5619
18.3532
17.2988
16.3833
15.5912
14.907
14.3165
13.807
13.3663
12.9835
12.6493
12.3559
12.0954
11.8613
11.6483
11.4517
11.2688
11.096
10.9307
10.771
10.6155
10.4632
10.3133
10.1654
10.0186
9.87189
9.72384
9.57241
9.41432
9.24543
9.06058
8.85372
8.61826
8.34777
8.03676
7.68157
7.28131
6.83861
6.35998
5.85567
5.33888
4.82451
4.32757
3.86159
3.43744
3.06255
2.74099
2.47385
2.26017
2.09747
63.1007
36.0665
28.9856
25.6329
24.0204
23.3375
23.1948
23.3808
23.7716
24.2884
24.8782
25.5036
26.1375
26.7604
27.3586
27.9231
28.4492
28.9354
29.3835
29.7981
30.1855
30.554
30.9129
31.272
31.6409
32.0289
32.4444
32.8942
33.3839
33.9177
34.4978
35.1254
35.8002
36.5206
37.2843
38.0881
38.9281
39.8003
40.7001
41.6232
42.5649
43.5206
44.4858
45.4564
46.4282
47.3976
48.3611
49.3153
50.2572
51.184
52.093
52.9817
53.8479
54.6895
55.5044
56.2908
57.0469
57.7709
58.4611
59.1158
59.7334
60.3121
60.8504
61.3466
61.7992
62.2066
62.5674
62.8801
63.1433
63.3556
63.5159
63.623
63.676
63.6741
63.6168
63.5036
63.3341
63.1112
62.8361
62.5101
62.1352
61.7135
61.2477
60.7406
60.196
59.6175
59.0097
58.3776
57.7265
57.0624
56.392
55.7226
55.0618
54.4182
53.8007
53.2191
52.6833
52.2037
51.7909
51.455
51.2055
51.0505
50.9959
51.0443
51.1937
51.4364
51.7572
52.1324
52.529
52.9045
53.2077
53.3815
53.3659
53.1035
52.5446
51.6579
50.4322
48.8757
47.0139
44.8893
42.5576
40.0835
37.5351
34.9788
32.4748
30.0784
27.8293
25.754
23.8671
22.1729
20.6679
19.3428
18.1844
17.1773
16.3055
15.5528
14.9039
14.3445
13.8614
13.4426
13.0776
12.7572
12.4728
12.2171
11.9839
11.7679
11.5661
11.3746
11.1906
11.0121
10.8376
10.6662
10.4973
10.3309
10.1666
10.0039
9.84169
9.67853
9.51178
9.33775
9.15162
8.94743
8.71839
8.45747
8.15818
7.81548
7.4269
6.99335
6.51976
6.01513
5.49191
4.96492
4.44977
3.96118
3.51157
3.1101
2.76234
2.47061
2.23469
2.0526
61.7345
35.8399
28.922
25.636
24.0684
23.4249
23.3212
23.548
23.9813
24.5416
25.1749
25.8429
26.5176
27.1785
27.8108
28.4051
28.9557
29.4608
29.9217
30.3429
30.7307
31.0937
31.4414
31.7841
32.1321
32.4955
32.8831
33.3029
33.7611
34.2624
34.8101
35.4058
36.05
36.7418
37.4791
38.2593
39.0791
39.9344
40.8213
41.7356
42.673
43.6286
44.5976
45.5761
46.5601
47.5458
48.5295
49.5079
50.4778
51.436
52.3798
53.3064
54.2132
55.0977
55.9578
56.7914
57.5964
58.3706
59.1122
59.8189
60.4889
61.1201
61.7106
62.2584
62.7616
63.2184
63.627
63.9855
64.2921
64.5453
64.7433
64.8848
64.9684
64.993
64.9575
64.8615
64.7042
64.4861
64.2097
63.8762
63.4872
63.0447
62.5514
62.01
61.424
60.7971
60.1336
59.4384
58.7169
57.975
57.2195
56.4577
55.6974
54.9476
54.2175
53.5175
52.8584
52.2519
51.7098
51.2445
50.8678
50.5912
50.4244
50.3747
50.4453
50.6343
50.9325
51.322
51.7743
52.2498
52.6979
53.0584
53.2653
53.2517
52.9592
52.3446
51.3822