/*--------------------------------*- C++ -*----------------------------------*\
  =========                 |
  \\      /  F ield         | OpenFOAM: The Open Source CFD Toolbox
   \\    /   O peration     | Website:  https://openfoam.org
    \\  /    A nd           | Version:  9
     \\/     M anipulation  |
\*---------------------------------------------------------------------------*/
FoamFile
{
    format      ascii;
    class       volScalarField;
    location    "0.17";
    object      k;
}
// * * * * * * * * * * * * * * * * * * * * * * * * * * * * * * * * * * * * * //

dimensions      [0 2 -2 0 0 0 0];

internalField   nonuniform List<scalar> 
12225
(
0.266957
0.161027
0.104638
0.0750625
0.0591548
0.0499626
0.0440308
0.0397448
0.0363795
0.0336015
0.03124
0.029196
0.0274094
0.0258501
0.0247563
0.0242924
0.0255777
0.0339543
0.336455
0.251457
0.19778
0.165914
0.145952
0.132319
0.122188
0.114144
0.107468
0.101774
0.0968231
0.0924572
0.0885729
0.0851209
0.0820679
0.079516
0.0793224
0.0843266
0.345741
0.286598
0.2405
0.207891
0.184771
0.167824
0.154827
0.144412
0.13577
0.128413
0.122032
0.116413
0.111408
0.106904
0.102896
0.0995797
0.0989538
0.10777
0.350409
0.305437
0.266178
0.235231
0.211384
0.192877
0.178194
0.166229
0.156231
0.147705
0.140313
0.133821
0.128063
0.122927
0.11838
0.114753
0.113704
0.119878
0.353329
0.316925
0.28315
0.254633
0.231327
0.212393
0.196884
0.183985
0.173078
0.163715
0.155572
0.148415
0.142079
0.136463
0.131544
0.127679
0.126183
0.129983
0.355305
0.324478
0.294999
0.268973
0.246781
0.228093
0.212349
0.198987
0.18753
0.177603
0.168919
0.161262
0.15448
0.148488
0.143298
0.1392
0.137233
0.139277
0.356685
0.329677
0.303546
0.279813
0.258949
0.240881
0.225297
0.211822
0.200105
0.189848
0.180808
0.1728
0.165689
0.159409
0.153995
0.149676
0.147209
0.147842
0.357664
0.333348
0.309827
0.288104
0.268596
0.251336
0.23616
0.222823
0.211074
0.200681
0.191449
0.183223
0.17589
0.169399
0.163789
0.159263
0.156319
0.155778
0.35836
0.335969
0.314478
0.29447
0.276247
0.259868
0.245244
0.232217
0.220605
0.210234
0.200949
0.192624
0.185167
0.178536
0.172765
0.168011
0.164622
0.163124
0.358851
0.337841
0.317919
0.299345
0.282287
0.266787
0.252786
0.240176
0.228824
0.218597
0.209373
0.201051
0.193556
0.186855
0.18097
0.176011
0.172215
0.169938
0.359194
0.33917
0.320446
0.303044
0.28701
0.27234
0.258981
0.246847
0.235835
0.225841
0.216768
0.208534
0.201079
0.194371
0.188423
0.183309
0.179188
0.17631
0.359411
0.340023
0.322122
0.305582
0.290348
0.27637
0.263583
0.251905
0.241248
0.231524
0.222653
0.214564
0.207207
0.200552
0.194604
0.189412
0.185091
0.181833
0.359564
0.340636
0.323366
0.307521
0.292967
0.279608
0.267357
0.25613
0.245844
0.23642
0.227789
0.219889
0.212675
0.20612
0.200221
0.195011
0.190576
0.187052
0.359682
0.341112
0.324362
0.309124
0.295199
0.282442
0.270741
0.26
0.250134
0.241069
0.23274
0.225091
0.218081
0.211684
0.205891
0.20072
0.196237
0.19254
0.359764
0.34145
0.325092
0.310343
0.296956
0.284746
0.273571
0.26332
0.2539
0.245235
0.237258
0.229919
0.223176
0.217001
0.211381
0.206324
0.201876
0.198103
0.359816
0.341664
0.325572
0.311178
0.298208
0.286449
0.275736
0.265939
0.256953
0.248696
0.2411
0.234109
0.227681
0.221785
0.216403
0.211533
0.207207
0.203463
0.359845
0.341782
0.325846
0.311678
0.298992
0.287561
0.277205
0.26778
0.259172
0.251288
0.244054
0.237411
0.231312
0.225721
0.220613
0.215981
0.211842
0.208212
0.359856
0.341831
0.325968
0.311914
0.299383
0.288145
0.278013
0.268837
0.260496
0.252891
0.245942
0.239585
0.233768
0.22845
0.2236
0.219202
0.215264
0.211783
0.359854
0.341823
0.325957
0.311909
0.299398
0.288194
0.278114
0.269008
0.260756
0.253257
0.246432
0.240212
0.234542
0.229377
0.224681
0.220431
0.216625
0.213249
0.359829
0.341719
0.325729
0.311514
0.298803
0.287382
0.277082
0.267764
0.259317
0.251647
0.244677
0.23834
0.232581
0.22735
0.222609
0.218327
0.214498
0.211102
0.35977
0.341476
0.325197
0.31061
0.297474
0.285606
0.274866
0.265135
0.256313
0.24831
0.241052
0.23447
0.228507
0.223108
0.218231
0.213839
0.209917
0.206448
0.359641
0.340952
0.324087
0.308793
0.294904
0.282296
0.270867
0.260519
0.251165
0.242716
0.235086
0.228199
0.221989
0.216394
0.211363
0.20685
0.202832
0.199291
0.359388
0.339935
0.322022
0.305567
0.290536
0.276887
0.264556
0.253455
0.243485
0.234546
0.226544
0.219378
0.212959
0.207214
0.202079
0.197498
0.193436
0.189874
0.358932
0.33812
0.318503
0.300329
0.283753
0.268811
0.255446
0.24355
0.232992
0.223632
0.215338
0.207994
0.201483
0.195702
0.190572
0.186026
0.182016
0.178521
0.358162
0.335066
0.312856
0.292325
0.273836
0.257451
0.243057
0.230469
0.219476
0.209879
0.20149
0.194146
0.187715
0.182069
0.177099
0.172728
0.168895
0.165575
0.356927
0.330084
0.304085
0.28051
0.259849
0.242053
0.226836
0.213845
0.202737
0.193212
0.18502
0.177946
0.17182
0.166509
0.161883
0.157846
0.154328
0.1513
0.355011
0.321938
0.290508
0.263233
0.240401
0.221547
0.20601
0.193148
0.182425
0.173419
0.165803
0.159326
0.153785
0.149026
0.144936
0.141398
0.138336
0.135716
0.352078
0.308033
0.268874
0.237543
0.213117
0.194109
0.179177
0.167271
0.157627
0.149704
0.143122
0.137605
0.132947
0.12899
0.125618
0.122751
0.12029
0.118192
0.346459
0.281247
0.23187
0.197255
0.172921
0.155424
0.142477
0.132603
0.124864
0.118664
0.113614
0.10945
0.105992
0.103101
0.10068
0.0986569
0.0969692
0.0955369
0.300434
0.21458
0.158246
0.121097
0.096492
0.0800761
0.0689388
0.0611596
0.055527
0.0513004
0.0480297
0.0454369
0.0433564
0.0416709
0.0402909
0.0391545
0.0382176
0.0374515
0.0269928
0.0565754
0.0732101
0.0863547
0.0969723
0.105623
0.112691
0.11846
0.123149
0.126934
0.129962
0.132374
0.13432
0.135997
0.137557
0.138944
0.140092
0.14089
0.140939
0.139374
0.1388
0.141109
0.14236
0.13517
0.138022
0.133852
0.135158
0.137045
0.138771
0.141996
0.131037
0.134186
0.137946
0.14227
0.153708
0.147102
0.155063
0.164567
0.174624
0.185022
0.195613
0.206271
0.216892
0.227391
0.2377
0.247766
0.257551
0.267031
0.276188
0.285014
0.293508
0.301672
0.309513
0.317039
0.32426
0.331185
0.337827
0.344194
0.350297
0.356143
0.361741
0.367099
0.372221
0.377115
0.381787
0.386243
0.390492
0.394545
0.39842
0.402141
0.405747
0.409295
0.412771
0.416023
0.419055
0.421873
0.424475
0.426857
0.429009
0.430923
0.432584
0.433981
0.435097
0.435916
0.436418
0.436584
0.436391
0.435814
0.434828
0.433406
0.431518
0.429133
0.42622
0.422746
0.418678
0.413983
0.408632
0.402594
0.395846
0.388368
0.380147
0.371177
0.361466
0.351031
0.339905
0.328137
0.315793
0.302956
0.289729
0.27623
0.262592
0.248964
0.235501
0.222374
0.209778
0.197944
0.187131
0.177718
0.170602
0.168429
0.174916
0.169879
0.167014
0.171834
0.171719
0.17603
0.166983
0.160396
0.159942
0.168198
0.16721
0.166764
0.166383
0.165046
0.160583
0.162103
0.160609
0.163769
0.176295
0.176933
0.176642
0.175256
0.171932
0.165464
0.163898
0.166125
0.174866
0.165428
0.167954
0.168416
0.180542
0.175781
0.168358
0.180594
0.169329
0.184477
0.181812
0.170423
0.185637
0.186033
0.176804
0.161733
0.186025
0.18303
0.177268
0.171036
0.164889
0.158754
0.152697
0.146788
0.141082
0.135616
0.130405
0.125444
0.120703
0.116131
0.111649
0.107149
0.102406
0.097348
0.0371048
0.0752472
0.0991015
0.116032
0.128678
0.138388
0.145982
0.152008
0.15686
0.160842
0.164203
0.167161
0.169927
0.172734
0.175668
0.178824
0.182292
0.186162
0.19055
0.195632
0.20165
0.20905
0.217483
0.226047
0.237756
0.246892
0.257667
0.268739
0.28032
0.294232
0.303384
0.313236
0.32286
0.332978
0.344188
0.352829
0.36189
0.371371
0.381204
0.391335
0.401734
0.412378
0.423238
0.434269
0.445416
0.456618
0.467814
0.478944
0.489954
0.500798
0.51144
0.521853
0.532018
0.541924
0.551568
0.560951
0.570077
0.578957
0.587599
0.596015
0.604217
0.612216
0.620022
0.627646
0.635096
0.642378
0.649498
0.65646
0.663267
0.669921
0.676424
0.682784
0.68896
0.694987
0.700869
0.706599
0.712167
0.717558
0.722756
0.727741
0.73249
0.736977
0.741172
0.74504
0.748543
0.751638
0.754279
0.756412
0.75798
0.758922
0.759171
0.758654
0.757296
0.755017
0.751735
0.747366
0.741827
0.735036
0.726916
0.717396
0.70642
0.693941
0.679934
0.664397
0.647354
0.628861
0.609009
0.587925
0.565777
0.542767
0.519135
0.49515
0.471101
0.447294
0.424037
0.401631
0.380351
0.360427
0.342001
0.324873
0.30704
0.294286
0.284171
0.278709
0.271136
0.262983
0.256084
0.247027
0.242912
0.241699
0.238699
0.236119
0.233925
0.231899
0.230781
0.229983
0.227333
0.228227
0.23142
0.231643
0.231352
0.230721
0.229782
0.22959
0.227835
0.229294
0.232057
0.232204
0.233425
0.233059
0.236696
0.235987
0.234206
0.237147
0.23477
0.238225
0.236955
0.235075
0.236217
0.234797
0.229503
0.223978
0.227852
0.223543
0.21694
0.209757
0.20253
0.195255
0.18803
0.180955
0.174119
0.167583
0.161381
0.155516
0.149961
0.144657
0.139513
0.134425
0.129251
0.124136
0.0552679
0.0993962
0.126682
0.145768
0.159916
0.170764
0.179284
0.186124
0.191761
0.196574
0.200894
0.205024
0.209264
0.213866
0.218913
0.224639
0.231272
0.239028
0.248118
0.258716
0.270777
0.284267
0.298991
0.314058
0.329473
0.344243
0.358502
0.372012
0.384725
0.396701
0.407469
0.417532
0.427212
0.437027
0.447278
0.457826
0.469044
0.481102
0.494025
0.507727
0.522085
0.53695
0.552162
0.567559
0.582981
0.598284
0.613342
0.628052
0.642336
0.656135
0.669416
0.68216
0.694365
0.70604
0.717202
0.727875
0.738087
0.747867
0.757247
0.766257
0.774928
0.783287
0.791361
0.799176
0.806755
0.814118
0.821284
0.82827
0.83509
0.841755
0.848276
0.854658
0.860964
0.867164
0.873242
0.879185
0.88498
0.890615
0.896074
0.901339
0.906387
0.911192
0.915724
0.919946
0.923817
0.927292
0.930317
0.932835
0.934779
0.936079
0.936656
0.936424
0.935293
0.933166
0.929941
0.925513
0.919775
0.91262
0.903946
0.893655
0.881662
0.867894
0.8523
0.834853
0.815558
0.794454
0.771623
0.747189
0.721328
0.694258
0.666248
0.637605
0.608672
0.579813
0.5514
0.523801
0.49736
0.472347
0.448876
0.426827
0.405925
0.388471
0.373621
0.361417
0.349539
0.33828
0.328637
0.318987
0.312256
0.307234
0.30223
0.297799
0.293938
0.290595
0.287949
0.285401
0.282413
0.281512
0.281533
0.280971
0.280355
0.279857
0.279569
0.27955
0.278452
0.279182
0.280622
0.281815
0.282358
0.282019
0.283339
0.283545
0.282576
0.283039
0.281898
0.282182
0.281033
0.279721
0.27732
0.274376
0.270132
0.264783
0.261772
0.25579
0.248096
0.239825
0.231412
0.222907
0.214434
0.206127
0.198102
0.190447
0.183217
0.176426
0.170051
0.164032
0.158277
0.152681
0.147171
0.141885
0.0750163
0.124649
0.155051
0.176073
0.191635
0.20362
0.213118
0.220859
0.227386
0.233144
0.238532
0.243922
0.249686
0.25589
0.262829
0.270793
0.280055
0.290842
0.303332
0.317389
0.332786
0.349202
0.36612
0.38295
0.399264
0.41468
0.429021
0.442231
0.45443
0.465864
0.476793
0.487592
0.498711
0.510582
0.523463
0.537401
0.552404
0.56843
0.585358
0.603005
0.62116
0.639603
0.658125
0.676531
0.694653
0.712351
0.729512
0.746054
0.761921
0.77708
0.791519
0.80524
0.818261
0.830607
0.84231
0.853407
0.863937
0.87394
0.883455
0.892523
0.901181
0.909465
0.917408
0.925043
0.932398
0.939502
0.946378
0.95305
0.959536
0.965853
0.972016
0.978034
0.98396
0.989801
0.995531
1.00113
1.0066
1.01193
1.01709
1.02209
1.02689
1.03148
1.03584
1.03992
1.04369
1.04712
1.05014
1.0527
1.05474
1.05619
1.05695
1.05695
1.05609
1.05426
1.05135
1.04725
1.04183
1.03498
1.02656
1.01647
1.00458
0.990807
0.975063
0.957293
0.937473
0.91561
0.89176
0.866021
0.838548
0.809548
0.779283
0.748066
0.716256
0.684244
0.652439
0.621255
0.591088
0.562271
0.535016
0.509424
0.485672
0.464529
0.445791
0.429317
0.414285
0.400658
0.388622
0.37773
0.368745
0.361159
0.354319
0.348263
0.342931
0.33827
0.334271
0.33068
0.327439
0.325322
0.323826
0.32243
0.321219
0.320255
0.319547
0.319031
0.318366
0.318527
0.319073
0.319613
0.319746
0.319598
0.319964
0.319873
0.319158
0.318715
0.317601
0.316649
0.314941
0.312751
0.309485
0.305616
0.300832
0.294886
0.289083
0.281669
0.272856
0.263498
0.253911
0.244191
0.234491
0.224975
0.215791
0.207054
0.198839
0.191177
0.184053
0.177411
0.171164
0.165214
0.159521
0.154189
0.095289
0.150665
0.184066
0.206962
0.223942
0.237108
0.247648
0.256354
0.263823
0.270555
0.277002
0.283594
0.290517
0.298026
0.306458
0.316065
0.327084
0.339638
0.353714
0.369132
0.385567
0.402573
0.419629
0.436248
0.452078
0.466925
0.480765
0.493737
0.506131
0.518323
0.530706
0.543661
0.557531
0.572563
0.588853
0.606351
0.624923
0.644397
0.664564
0.685198
0.706067
0.726953
0.747654
0.767997
0.787836
0.807054
0.825563
0.8433
0.860228
0.876327
0.891597
0.906049
0.919707
0.932602
0.944769
0.956249
0.967085
0.977318
0.986992
0.996148
1.00483
1.01307
1.02091
1.02838
1.03552
1.04235
1.04891
1.05521
1.06129
1.06717
1.07285
1.07836
1.08372
1.089
1.09416
1.09919
1.10408
1.10884
1.11344
1.11789
1.12217
1.12626
1.13016
1.13382
1.13723
1.14034
1.14311
1.1455
1.14744
1.14886
1.14969
1.14985
1.14923
1.14774
1.14527
1.14168
1.13685
1.13066
1.12295
1.1136
1.10247
1.08944
1.0744
1.05725
1.03793
1.01642
0.992723
0.966898
0.939062
0.909385
0.878103
0.845509
0.811953
0.777831
0.743576
0.709634
0.67645
0.644426
0.613877
0.585044
0.558191
0.533673
0.511503
0.491591
0.473657
0.457551
0.443205
0.430432
0.419322
0.40961
0.400983
0.393339
0.386583
0.380634
0.375431
0.370865
0.366917
0.363766
0.361188
0.358957
0.357049
0.355465
0.354181
0.35315
0.352312
0.351904
0.351736
0.351611
0.351338
0.350982
0.350728
0.350211
0.349333
0.348342
0.346908
0.345214
0.342894
0.339941
0.336099
0.331477
0.325923
0.319254
0.31192
0.303292
0.293395
0.282975
0.272238
0.26132
0.250406
0.239693
0.229358
0.219549
0.210364
0.201854
0.194015
0.1868
0.180128
0.17391
0.168118
0.162809
0.115515
0.17655
0.212929
0.237866
0.256457
0.270987
0.282734
0.29254
0.301029
0.308749
0.316181
0.32367
0.331367
0.339658
0.348868
0.359247
0.370954
0.384031
0.398383
0.413781
0.429883
0.446278
0.462554
0.47837
0.493527
0.507993
0.521886
0.535459
0.549051
0.563029
0.577732
0.593433
0.610317
0.62846
0.647828
0.668292
0.689662
0.711724
0.734249
0.757012
0.779796
0.802403
0.824658
0.84641
0.867535
0.887936
0.907538
0.926291
0.944163
0.961142
0.977227
0.992433
1.00678
1.0203
1.03303
1.045
1.05626
1.06685
1.07681
1.08618
1.095
1.10331
1.11115
1.11855
1.12555
1.13217
1.13845
1.14442
1.1501
1.15551
1.16068
1.16562
1.17036
1.17497
1.17944
1.18376
1.18792
1.19193
1.19579
1.19949
1.20302
1.20639
1.20958
1.21258
1.21536
1.2179
1.22017
1.22213
1.22373
1.22491
1.22561
1.22575
1.22525
1.22401
1.22192
1.21885
1.21469
1.2093
1.20252
1.19421
1.18422
1.1724
1.1586
1.14271
1.12461
1.10423
1.08153
1.05652
1.02925
0.999849
0.968497
0.93545
0.90103
0.865622
0.829659
0.793613
0.757966
0.723183
0.689668
0.657764
0.627788
0.600023
0.574589
0.55149
0.530659
0.511931
0.495168
0.480212
0.466965
0.455229
0.444797
0.435534
0.427318
0.420052
0.413647
0.408023
0.403139
0.398989
0.395443
0.392373
0.389725
0.387465
0.385556
0.383958
0.382658
0.381662
0.380858
0.380132
0.379384
0.378608
0.377808
0.37682
0.37557
0.374083
0.3722
0.369907
0.367009
0.363425
0.359008
0.353703
0.347406
0.339996
0.331573
0.32188
0.310973
0.299526
0.287665
0.275566
0.263446
0.251534
0.240044
0.229152
0.218989
0.209626
0.201076
0.193301
0.18623
0.179776
0.173913
0.16865
0.135369
0.201327
0.240908
0.268141
0.288574
0.304668
0.317777
0.328788
0.338369
0.347066
0.355355
0.363351
0.371479
0.380108
0.389537
0.399986
0.411578
0.42432
0.438104
0.452719
0.467881
0.483282
0.498645
0.51378
0.528621
0.543238
0.557814
0.572609
0.587921
0.604029
0.621159
0.639456
0.658978
0.679696
0.701501
0.72423
0.74768
0.771636
0.795883
0.82021
0.844425
0.868351
0.891834
0.914743
0.936967
0.95842
0.979035
0.998767
1.01758
1.03547
1.05243
1.06847
1.08361
1.09787
1.11129
1.12389
1.13572
1.14681
1.1572
1.16692
1.17603
1.18455
1.19252
1.19997
1.20694
1.21345
1.21955
1.22525
1.23059
1.23558
1.24026
1.24465
1.24877
1.25266
1.25637
1.25989
1.26323
1.26637
1.26933
1.27212
1.27473
1.27717
1.27944
1.28153
1.28344
1.28515
1.28665
1.2879
1.28889
1.28956
1.28986
1.28974
1.28912
1.28791
1.28603
1.28336
1.27979
1.27516
1.26934
1.26218
1.2535
1.24313
1.23092
1.2167
1.20032
1.18165
1.16059
1.1371
1.11115
1.08282
1.05221
1.01953
0.985043
0.949109
0.912145
0.874628
0.837068
0.799978
0.763839
0.729082
0.696092
0.665189
0.63658
0.610354
0.586574
0.565098
0.545783
0.52847
0.513009
0.49922
0.486926
0.475977
0.466238
0.457591
0.449933
0.443175
0.43725
0.432094
0.427604
0.423683
0.420262
0.417291
0.414719
0.412495
0.41061
0.409001
0.40758
0.406262
0.404977
0.403682
0.402332
0.400828
0.399098
0.397091
0.394699
0.391844
0.388387
0.384223
0.379225
0.373283
0.366297
0.358164
0.348838
0.338181
0.326381
0.313941
0.300993
0.287738
0.274424
0.261314
0.248656
0.236665
0.225502
0.215263
0.205983
0.197635
0.190156
0.183462
0.177518
0.172291
0.154059
0.22434
0.267216
0.29692
0.319383
0.337228
0.351874
0.364238
0.374995
0.384695
0.393522
0.401919
0.410292
0.418987
0.428286
0.438393
0.449424
0.461401
0.474252
0.487831
0.501949
0.516412
0.531069
0.545842
0.560747
0.575895
0.591463
0.607665
0.624717
0.642796
0.662021
0.682442
0.704035
0.726714
0.750341
0.774742
0.799723
0.825082
0.850622
0.876153
0.901501
0.926509
0.951037
0.974966
0.998195
1.02064
1.04225
1.06296
1.08275
1.1016
1.11951
1.13647
1.15249
1.16761
1.18183
1.1952
1.20773
1.21946
1.23043
1.24066
1.2502
1.25908
1.26732
1.27496
1.28204
1.28857
1.2946
1.30014
1.30523
1.30989
1.31415
1.31802
1.32154
1.32473
1.32768
1.33038
1.33283
1.33503
1.337
1.33875
1.34029
1.34164
1.34279
1.34377
1.34458
1.34521
1.34567
1.34594
1.34601
1.34586
1.34545
1.34475
1.34371
1.34225
1.3403
1.33778
1.33456
1.33053
1.32554
1.31945
1.31207
1.30324
1.29276
1.28043
1.26607
1.24951
1.23058
1.20916
1.18516
1.15858
1.12944
1.09788
1.06409
1.02838
0.991136
0.952814
0.913936
0.875051
0.836701
0.799396
0.763602
0.729714
0.698026
0.668713
0.641946
0.617631
0.595648
0.575852
0.558083
0.542167
0.527933
0.515221
0.503886
0.493792
0.484821
0.476868
0.469845
0.463664
0.458225
0.453436
0.449219
0.445507
0.442238
0.439351
0.43682
0.434573
0.432524
0.430598
0.428728
0.426858
0.424928
0.422862
0.420584
0.418022
0.415079
0.411661
0.407646
0.402916
0.397343
0.390799
0.383172
0.374351
0.364233
0.352719
0.340122
0.326755
0.312772
0.298403
0.28392
0.26962
0.255789
0.242679
0.230488
0.219342
0.209297
0.200343
0.192424
0.185457
0.179394
0.174167
0.170809
0.245119
0.291287
0.323464
0.348004
0.367686
0.383974
0.39779
0.409803
0.420327
0.429797
0.438655
0.447281
0.456003
0.465089
0.474747
0.485114
0.496251
0.50815
0.52075
0.53396
0.547692
0.561888
0.576542
0.591709
0.607498
0.62405
0.641517
0.660032
0.679689
0.70053
0.722541
0.745654
0.769757
0.794701
0.820318
0.846425
0.872837
0.899373
0.925862
0.952145
0.978077
1.00353
1.02839
1.05257
1.07598
1.09856
1.12027
1.14106
1.16091
1.17981
1.19777
1.21477
1.23083
1.24597
1.26021
1.27357
1.28608
1.29776
1.30865
1.31877
1.32814
1.33681
1.34479
1.35212
1.35881
1.3649
1.37042
1.37538
1.37981
1.38374
1.38719
1.39018
1.39274
1.39495
1.39683
1.39838
1.39961
1.40053
1.40118
1.40155
1.40168
1.40158
1.40127
1.40078
1.40011
1.39927
1.39829
1.39715
1.39587
1.39443
1.3928
1.39098
1.38891
1.38655
1.38382
1.38063
1.37689
1.37247
1.36723
1.36099
1.35358
1.3448
1.33442
1.32222
1.30799
1.2915
1.27257
1.25102
1.22677
1.19974
1.16999
1.13763
1.10289
1.0661
1.02768
0.988139
0.948042
0.907979
0.868531
0.830243
0.793598
0.758985
0.726674
0.696925
0.669726
0.645
0.622628
0.602462
0.584337
0.568083
0.553533
0.54053
0.528926
0.518586
0.50939
0.50123
0.494002
0.487601
0.481929
0.476896
0.472423
0.468434
0.464861
0.461646
0.458737
0.456041
0.453481
0.450989
0.448504
0.44596
0.443288
0.440414
0.43726
0.433733
0.429736
0.425152
0.419859
0.413722
0.406605
0.39838
0.388919
0.378095
0.365858
0.352553
0.33834
0.323399
0.307976
0.292368
0.276902
0.261903
0.247662
0.234416
0.222326
0.211473
0.201866
0.193455
0.186161
0.179921
0.174639
0.185255
0.263195
0.312552
0.347033
0.373559
0.395062
0.41303
0.428373
0.441568
0.453095
0.463419
0.472939
0.482
0.490909
0.499929
0.509279
0.519126
0.529582
0.54071
0.552532
0.565045
0.578247
0.592146
0.606782
0.622221
0.638557
0.655891
0.674317
0.693906
0.714694
0.736671
0.759786
0.783949
0.809036
0.834902
0.861383
0.888311
0.915514
0.942827
0.970091
0.997159
1.0239
1.05018
1.0759
1.10098
1.12532
1.14886
1.17155
1.19336
1.21424
1.23419
1.25318
1.27122
1.2883
1.30445
1.31966
1.33396
1.34736
1.35988
1.37154
1.38238
1.3924
1.40163
1.41009
1.41782
1.42482
1.43112
1.43674
1.44171
1.44604
1.44977
1.4529
1.45548
1.45751
1.45904
1.46015
1.46083
1.46111
1.46098
1.46049
1.45965
1.45849
1.45704
1.45532
1.45337
1.45122
1.44889
1.44641
1.4438
1.44109
1.43829
1.4354
1.43243
1.42937
1.42618
1.42284
1.41928
1.41544
1.4112
1.40646
1.40105
1.39481
1.38753
1.37897
1.36891
1.35706
1.34318
1.32699
1.30826
1.28678
1.26242
1.23511
1.20486
1.17181
1.13621
1.09842
1.05892
1.01827
0.977074
0.935979
0.895605
0.856524
0.819224
0.784086
0.751417
0.721348
0.693854
0.668853
0.646225
0.625821
0.607475
0.591019
0.576286
0.563115
0.551358
0.540879
0.531552
0.523258
0.515881
0.509313
0.50345
0.498201
0.493476
0.489194
0.485282
0.481694
0.478331
0.475112
0.471968
0.468832
0.465641
0.462326
0.458816
0.455035
0.450893
0.446295
0.441129
0.43527
0.42858
0.420916
0.412135
0.402092
0.390643
0.377853
0.363918
0.348957
0.333154
0.316762
0.300097
0.283511
0.267365
0.251994
0.237673
0.224603
0.212895
0.202577
0.193612
0.185922
0.179432
0.174026
0.197012
0.278237
0.330594
0.367035
0.395332
0.418548
0.438179
0.454979
0.469536
0.482348
0.493819
0.504294
0.514087
0.52348
0.53273
0.542068
0.551687
0.561748
0.572377
0.583667
0.595691
0.608513
0.622193
0.636799
0.652406
0.66909
0.686922
0.705958
0.726225
0.747721
0.770408
0.794215
0.81904
0.844758
0.871228
0.898295
0.925802
0.953588
0.981499
1.00939
1.03711
1.06455
1.09158
1.11809
1.14401
1.16923
1.19371
1.21738
1.24019
1.26211
1.28311
1.30318
1.3223
1.34046
1.35767
1.37393
1.38925
1.40363
1.41709
1.42965
1.44132
1.4521
1.46203
1.47112
1.47938
1.48682
1.49348
1.49936
1.50448
1.50886
1.51252
1.51547
1.51775
1.51936
1.52033
1.52076
1.52066
1.52003
1.5189
1.5173
1.51524
1.51278
1.50993
1.50673
1.50324
1.49948
1.4955
1.49134
1.48705
1.48266
1.47821
1.47374
1.46927
1.46483
1.46041
1.45603
1.45165
1.44724
1.44273
1.43804
1.43303
1.42756
1.42144
1.41444
1.4063
1.39674
1.38544
1.3721
1.35639
1.33803
1.31676
1.29241
1.26489
1.23421
1.20052
1.1641
1.12537
1.08486
1.04319
1.00103
0.959071
0.917967
0.878306
0.840577
0.805155
0.772307
0.742077
0.714443
0.689323
0.666592
0.646103
0.627687
0.611172
0.596388
0.583175
0.571381
0.560863
0.551487
0.543123
0.535649
0.528949
0.522915
0.517445
0.512444
0.507825
0.503544
0.499497
0.4956
0.491779
0.487965
0.484096
0.480105
0.475926
0.471484
0.466699
0.461478
0.455713
0.449282
0.442048
0.43386
0.424565
0.413998
0.402059
0.388827
0.374363
0.35877
0.342222
0.324972
0.307343
0.289709
0.272461
0.255976
0.240573
0.226493
0.213884
0.202796
0.193209
0.185044
0.178221
0.17261
0.205894
0.290075
0.344987
0.382963
0.412762
0.437573
0.458766
0.477167
0.493349
0.507731
0.520652
0.532411
0.54328
0.553515
0.563362
0.573051
0.582798
0.592799
0.603228
0.614238
0.62596
0.638511
0.651995
0.666506
0.682127
0.698932
0.716973
0.736283
0.756869
0.778705
0.80174
0.825893
0.85106
0.877117
0.903928
0.931348
0.959228
0.987416
1.01577
1.04414
1.07241
1.10044
1.12812
1.15535
1.18204
1.2081
1.23346
1.25807
1.28187
1.30481
1.32687
1.34802
1.36823
1.3875
1.40582
1.42317
1.43957
1.45501
1.46949
1.48303
1.49562
1.50729
1.51803
1.52786
1.53678
1.54481
1.55196
1.55823
1.56365
1.56822
1.57196
1.57488
1.57699
1.57833
1.57889
1.57876
1.57797
1.57654
1.57448
1.57184
1.56862
1.56488
1.56065
1.55597
1.55089
1.54547
1.53975
1.5338
1.52766
1.52141
1.51509
1.50876
1.50249
1.49632
1.49029
1.48444
1.47879
1.47333
1.46805
1.46289
1.45778
1.45259
1.44717
1.4413
1.43474
1.42718
1.4183
1.40774
1.3951
1.38001
1.36213
1.34116
1.31687
1.28916
1.25806
1.22373
1.18651
1.14688
1.10543
1.06285
1.01989
0.977264
0.93566
0.895669
0.857754
0.822297
0.789436
0.759219
0.73162
0.706548
0.683889
0.66348
0.645148
0.628717
0.614019
0.600886
0.589159
0.578688
0.56933
0.560945
0.553404
0.546583
0.540367
0.534645
0.529316
0.524333
0.519591
0.515
0.510482
0.505968
0.501394
0.4967
0.491821
0.48669
0.481233
0.475365
0.468984
0.461974
0.454199
0.445507
0.435736
0.424718
0.412436
0.398844
0.383962
0.367866
0.350709
0.332734
0.314261
0.295676
0.277398
0.25984
0.243365
0.22826
0.214709
0.202795
0.192513
0.183793
0.176548
0.170642
0.211745
0.298452
0.355331
0.394545
0.425691
0.45196
0.474792
0.494966
0.51297
0.529154
0.543797
0.557143
0.569421
0.580854
0.591665
0.602077
0.612313
0.622589
0.633114
0.644082
0.655672
0.668044
0.68134
0.695681
0.71117
0.727882
0.745872
0.765165
0.785758
0.807622
0.830698
0.854905
0.880141
0.906286
0.933211
0.960778
0.988845
1.01727
1.04591
1.07464
1.10332
1.13184
1.16008
1.18794
1.21532
1.24214
1.26833
1.29383
1.31856
1.3425
1.36558
1.38779
1.4091
1.42948
1.44891
1.46739
1.4849
1.50144
1.517
1.53158
1.54518
1.55781
1.56945
1.58012
1.58982
1.59855
1.60632
1.61312
1.61897
1.62388
1.62784
1.63087
1.63298
1.63418
1.6345
1.63394
1.6326
1.6305
1.62764
1.62405
1.61977
1.61483
1.60929
1.60317
1.59655
1.58947
1.58199
1.57419
1.56614
1.5579
1.54955
1.54119
1.53287
1.52469
1.51672
1.50903
1.50168
1.49471
1.48815
1.482
1.47622
1.47075
1.46547
1.46021
1.45474
1.44877
1.44197
1.43394
1.42426
1.41246
1.3981
1.38077
1.36011
1.33587
1.30795
1.27637
1.24137
1.20334
1.16284
1.12053
1.07722
1.03366
0.990614
0.948797
0.908737
0.870929
0.835616
0.802935
0.772923
0.74553
0.720706
0.698299
0.678134
0.660033
0.643832
0.629346
0.616399
0.604829
0.594473
0.585178
0.576797
0.569192
0.562232
0.555793
0.549758
0.54407
0.538626
0.53333
0.528102
0.52287
0.517573
0.512151
0.506546
0.500699
0.494545
0.488005
0.480989
0.473388
0.465072
0.455889
0.445674
0.434338
0.421778
0.407915
0.392729
0.376266
0.35865
0.340101
0.320928
0.301519
0.282311
0.263747
0.246234
0.230104
0.215586
0.202796
0.191752
0.182396
0.174639
0.168347
0.215054
0.303753
0.362098
0.402213
0.434453
0.462127
0.486625
0.508639
0.52858
0.546728
0.563299
0.578479
0.592447
0.605384
0.617484
0.628951
0.640002
0.650862
0.661755
0.672906
0.684526
0.696812
0.709939
0.724059
0.739297
0.755746
0.773471
0.792505
0.812849
0.834477
0.857334
0.881344
0.906411
0.932422
0.959254
0.986777
1.01486
1.04336
1.07214
1.10108
1.13006
1.15894
1.18763
1.21601
1.24399
1.27149
1.29843
1.32474
1.35035
1.37522
1.39929
1.42252
1.44489
1.46635
1.4869
1.50649
1.52512
1.54278
1.55945
1.57511
1.58977
1.60342
1.61604
1.62763
1.6382
1.64772
1.65621
1.66366
1.67007
1.67544
1.67976
1.68305
1.6853
1.68653
1.68673
1.68593
1.68421
1.68157
1.67805
1.67367
1.66845
1.66245
1.6557
1.64825
1.64016
1.63148
1.6223
1.61268
1.6027
1.59244
1.582
1.57148
1.56098
1.55059
1.54043
1.53059
1.52118
1.51229
1.50399
1.49633
1.48934
1.483
1.47726
1.472
1.46703
1.46211
1.4569
1.45102
1.44399
1.43531
1.42444
1.41085
1.39406
1.37367
1.34941
1.32118
1.28905
1.25331
1.21448
1.17313
1.1302
1.08641
1.04255
0.999392
0.957575
0.917717
0.88018
0.845204
0.812908
0.783317
0.756391
0.732012
0.710023
0.69024
0.672537
0.656695
0.642524
0.629854
0.618505
0.608305
0.59909
0.590709
0.583013
0.575865
0.569137
0.562742
0.556595
0.550592
0.544645
0.538685
0.532648
0.526479
0.520127
0.513541
0.506664
0.499429
0.491757
0.48355
0.474689
0.465021
0.454453
0.442843
0.430064
0.416013
0.400637
0.383944
0.366025
0.347066
0.327357
0.307275
0.287263
0.267789
0.249299
0.232169
0.216674
0.202971
0.191107
0.181041
0.172687
0.165916
0.215944
0.306248
0.365665
0.406403
0.439585
0.468582
0.494702
0.518557
0.540482
0.560685
0.579314
0.596494
0.612351
0.627021
0.640662
0.65345
0.665588
0.677293
0.688796
0.700336
0.712147
0.724452
0.737456
0.751341
0.766258
0.782326
0.799629
0.818217
0.838106
0.859282
0.881701
0.905298
0.929986
0.955661
0.98221
1.00951
1.03743
1.06584
1.09462
1.12364
1.15276
1.18189
1.2109
1.23969
1.26817
1.29625
1.32384
1.35087
1.37728
1.403
1.42799
1.45219
1.47556
1.49807
1.51968
1.54037
1.56011
1.57888
1.59665
1.61342
1.62916
1.64385
1.65749
1.67007
1.68156
1.69196
1.70126
1.70945
1.71652
1.72246
1.72727
1.73094
1.73347
1.73487
1.73513
1.73426
1.73229
1.72929
1.72526
1.72024
1.71425
1.70733
1.69952
1.69088
1.68145
1.67131
1.66052
1.64916
1.63732
1.62509
1.61257
1.59987
1.58711
1.57442
1.56191
1.54972
1.538
1.52685
1.51642
1.5068
1.49808
1.49031
1.4835
1.4776
1.47249
1.46797
1.46376
1.45948
1.45466
1.44876
1.44116
1.43126
1.41842
1.40209
1.38185
1.35742
1.32873
1.29591
1.25947
1.21997
1.17815
1.13478
1.09071
1.04675
1.00364
0.962108
0.922651
0.885616
0.851217
0.81955
0.790618
0.764345
0.740599
0.719218
0.700037
0.682853
0.667459
0.653697
0.641366
0.63027
0.620233
0.611088
0.60267
0.594825
0.587416
0.580326
0.573482
0.566772
0.560105
0.55341
0.546624
0.539696
0.53258
0.525234
0.517613
0.50966
0.501311
0.492479
0.483068
0.472972
0.462066
0.450208
0.43726
0.423097
0.407634
0.390843
0.372775
0.353578
0.333508
0.312922
0.292258
0.271997
0.252616
0.234535
0.218077
0.203442
0.190714
0.179873
0.170845
0.163509
0.214618
0.305623
0.366138
0.407486
0.441589
0.471886
0.499625
0.525344
0.549302
0.571635
0.592426
0.61174
0.629648
0.646239
0.661631
0.675969
0.68943
0.702218
0.714558
0.726691
0.738861
0.751312
0.764271
0.777948
0.79252
0.808136
0.824906
0.842904
0.862171
0.882709
0.904497
0.927481
0.95159
0.976734
1.00281
1.0297
1.05728
1.08544
1.11405
1.14299
1.17213
1.20136
1.23058
1.25966
1.28852
1.31707
1.34522
1.37289
1.40001
1.42652
1.45235
1.47746
1.50179
1.5253
1.54795
1.56971
1.59054
1.61041
1.6293
1.64717
1.66401
1.67979
1.69449
1.70809
1.72057
1.73191
1.7421
1.75111
1.75893
1.76555
1.77095
1.77513
1.77807
1.77976
1.78021
1.77941
1.77736
1.77414
1.76975
1.76423
1.7576
1.7499
1.74117
1.73147
1.72083
1.70934
1.69705
1.68406
1.67044
1.6563
1.64174
1.62688
1.61185
1.59678
1.58183
1.56714
1.55289
1.53923
1.52633
1.51435
1.50343
1.49369
1.48521
1.47803
1.47209
1.46729
1.4634
1.46009
1.45691
1.45333
1.44867
1.44225
1.43332
1.42118
1.40522
1.38499
1.36025
1.33111
1.29784
1.26088
1.22089
1.17865
1.13501
1.09084
1.04695
1.00418
0.963144
0.924318
0.888019
0.854425
0.8236
0.795515
0.770069
0.747119
0.726494
0.707997
0.691427
0.676589
0.663278
0.651286
0.640423
0.630519
0.621383
0.612847
0.604756
0.596976
0.589433
0.582011
0.574616
0.567174
0.559624
0.551917
0.544013
0.535883
0.527491
0.518788
0.509734