/*--------------------------------*- C++ -*----------------------------------*\
  =========                 |
  \\      /  F ield         | OpenFOAM: The Open Source CFD Toolbox
   \\    /   O peration     | Website:  https://openfoam.org
    \\  /    A nd           | Version:  9
     \\/     M anipulation  |
\*---------------------------------------------------------------------------*/
FoamFile
{
    format      ascii;
    class       volScalarField;
    location    "0.17";
    object      nut;
}
// * * * * * * * * * * * * * * * * * * * * * * * * * * * * * * * * * * * * * //

dimensions      [0 2 -1 0 0 0 0];

internalField   nonuniform List<scalar> 
12225
(
3.05314e-05
1.84137e-05
1.19697e-05
8.59146e-06
6.77418e-06
5.72389e-06
5.04634e-06
4.55719e-06
4.17358e-06
3.8573e-06
3.58876e-06
3.35656e-06
3.1537e-06
2.97678e-06
2.8719e-06
2.86101e-06
3.09244e-06
4.14741e-06
0.00016295
0.000102762
8.30729e-05
7.41017e-05
6.92211e-05
6.59655e-05
6.32919e-05
6.08555e-05
5.85898e-05
5.64954e-05
5.45738e-05
5.28263e-05
5.12685e-05
4.9972e-05
4.89655e-05
4.85119e-05
5.00579e-05
5.44049e-05
0.000338325
0.000221344
0.00018016
0.00015964
0.000147524
0.000139363
0.00013308
0.00012774
0.000122968
0.000118623
0.000114643
0.000111012
0.000107756
0.00010493
0.000102706
0.000101674
0.000103737
0.000110905
0.000502761
0.000350559
0.000287097
0.000253067
0.000232048
0.000217688
0.000206897
0.000198107
0.00019054
0.000183812
0.000177726
0.000172195
0.000167221
0.000162891
0.000159263
0.000157193
0.000158233
0.000163539
0.000628288
0.000472501
0.000393886
0.00034804
0.000318366
0.000297602
0.000281995
0.000269491
0.000258957
0.000249763
0.000241551
0.000234135
0.000227457
0.00022158
0.00021652
0.000213071
0.000212404
0.000215243
0.000714042
0.000576734
0.000493178
0.000439662
0.000403105
0.00037669
0.000356554
0.000340424
0.000326945
0.0003153
0.000304992
0.000295735
0.0002874
0.000280001
0.000273599
0.000268603
0.000266029
0.000266403
0.000768913
0.000659337
0.000580026
0.00052396
0.000483284
0.000452734
0.000428909
0.000409624
0.000393474
0.000379555
0.000367283
0.000356294
0.000346396
0.000337549
0.000329846
0.000323424
0.000318988
0.00031709
0.000802608
0.000720933
0.00065192
0.000598061
0.000556378
0.000523674
0.000497421
0.000475791
0.000457503
0.000441676
0.000427706
0.000415191
0.000403895
0.000393732
0.000384759
0.00037715
0.000371192
0.000367365
0.000822754
0.000764618
0.000708511
0.000660355
0.000620522
0.000587756
0.00056056
0.000537632
0.000517954
0.000500761
0.000485498
0.000471773
0.000459335
0.000448063
0.000437969
0.000429183
0.000421952
0.000416607
0.000834589
0.000794332
0.000751041
0.000710487
0.000674658
0.000643698
0.000617045
0.000593965
0.000573771
0.000555887
0.000539858
0.000525342
0.000512104
0.000500014
0.000489048
0.000479286
0.000470922
0.000464245
0.000841464
0.000813848
0.000781677
0.000749153
0.000718569
0.000690807
0.000665976
0.000643834
0.000624024
0.000606182
0.000589988
0.00057518
0.000561563
0.00054902
0.000537512
0.000527088
0.000517906
0.000510241
0.000845105
0.000825259
0.000801122
0.000775357
0.000749888
0.000725775
0.000703453
0.00068299
0.000664276
0.000647128
0.00063135
0.000616765
0.000603233
0.000590661
0.000579017
0.00056834
0.000558772
0.000550575
0.000847338
0.000832791
0.000814837
0.0007949
0.000774333
0.000754083
0.000734695
0.000716418
0.000699315
0.00068335
0.00066844
0.000654492
0.000641423
0.000629178
0.000617742
0.00060716
0.000597571
0.000589204
0.000848801
0.000838058
0.000825067
0.000810347
0.000794633
0.000778585
0.000762684
0.000747232
0.000732394
0.000718238
0.000704777
0.000691997
0.000679875
0.000668398
0.000657578
0.000647475
0.000638227
0.000630031
0.000849678
0.000841395
0.000831959
0.000821388
0.000809936
0.00079793
0.000785678
0.000773423
0.000761337
0.000749534
0.000738082
0.000727022
0.00071638
0.000706182
0.000696468
0.000687314
0.000678855
0.000671251
0.000850153
0.000843287
0.000836091
0.000828402
0.000820203
0.00081157
0.000802621
0.000793485
0.000784276
0.00077509
0.000766004
0.000757077
0.000748361
0.000739904
0.000731765
0.00072403
0.000716826
0.000710267
0.000850381
0.000844227
0.000838245
0.000832259
0.000826157
0.000819887
0.000813443
0.00080685
0.000800149
0.000793389
0.00078662
0.000779891
0.000773252
0.000766753
0.000760456
0.000754441
0.000748816
0.000743649
0.000850468
0.000844592
0.000839123
0.000833909
0.000828836
0.000823818
0.000818804
0.000813772
0.000808719
0.000803659
0.000798615
0.000793618
0.000788702
0.000783908
0.000779284
0.000774895
0.000770821
0.000767081
0.000850453
0.000844535
0.00083901
0.000833745
0.000828643
0.000823644
0.000818719
0.000813865
0.000809091
0.000804419
0.000799875
0.000795487
0.000791285
0.000787299
0.000783565
0.000780124
0.000777028
0.000774253
0.000850255
0.000843728
0.000837187
0.000830524
0.000823735
0.000816887
0.000810073
0.000803385
0.000796914
0.000790735
0.000784902
0.000779458
0.000774433
0.000769846
0.000765714
0.000762054
0.000758884
0.000756151
0.000849696
0.000841533
0.000832466
0.000822617
0.000812295
0.000801856
0.000791614
0.000781814
0.000772598
0.000764046
0.000756212
0.000749115
0.000742753
0.000737112
0.000732171
0.000727909
0.000724311
0.000721299
0.000848168
0.000835914
0.000821234
0.000805138
0.000788671
0.000772637
0.000757546
0.000743684
0.000731177
0.000720038
0.000710159
0.00070147
0.000693891
0.000687336
0.000681728
0.000676996
0.000673081
0.000669879
0.000844233
0.000822823
0.000797539
0.000771432
0.000746493
0.000723737
0.000703536
0.000685895
0.00067063
0.000657516
0.000646346
0.000636816
0.000628696
0.000621826
0.000616065
0.000611295
0.00060742
0.000604318
0.000834568
0.000795015
0.000753065
0.000714274
0.00068054
0.000652024
0.000628221
0.000608445
0.000592043
0.000578426
0.000567117
0.000557771
0.000550023
0.000543579
0.000538263
0.000533928
0.000530463
0.000527743
0.000811986
0.000741579
0.00067912
0.000628837
0.000589367
0.000558472
0.000534151
0.000514832
0.000499354
0.000486874
0.000476748
0.000468501
0.000461823
0.000456388
0.000451945
0.000448355
0.00044551
0.000443309
0.000762495
0.000650166
0.000571007
0.000516054
0.000476953
0.000448417
0.00042708
0.000410755
0.000398018
0.000387932
0.00037987
0.000373363
0.000368095
0.000363877
0.000360453
0.000357672
0.000355453
0.000353731
0.000663553
0.000514092
0.000433069
0.000384077
0.000352037
0.000330011
0.000314231
0.000302485
0.000293451
0.000286324
0.000280607
0.000275976
0.000272177
0.000269058
0.000266555
0.000264472
0.000262755
0.000261378
0.000492233
0.000343418
0.000280745
0.000246608
0.000225692
0.000212041
0.000202594
0.000195649
0.000190272
0.000185946
0.000182381
0.000179412
0.000176904
0.000174766
0.00017296
0.000171483
0.000170196
0.000169101
0.000262108
0.000171194
0.00013746
0.000119826
0.000109512
0.000103107
9.87883e-05
9.55865e-05
9.30311e-05
9.09011e-05
8.90876e-05
8.7532e-05
8.61903e-05
8.50136e-05
8.39965e-05
8.31383e-05
8.24212e-05
8.17665e-05
5.96992e-05
4.26359e-05
3.1434e-05
2.40472e-05
1.91556e-05
1.58926e-05
1.36792e-05
1.21331e-05
1.10134e-05
1.01729e-05
9.52209e-06
9.00571e-06
8.5882e-06
8.24522e-06
7.96257e-06
7.72869e-06
7.53405e-06
7.37054e-06
8.02131e-06
7.80597e-05
0.000101349
0.000119716
0.000134551
0.000146649
0.000156555
0.000164671
0.000171306
0.000176707
0.000181085
0.000184632
0.000187551
0.000190088
0.000192557
0.00019493
0.000197136
0.000198845
0.00019967
0.000202432
0.000203892
0.000203261
0.00020171
4.22623e-05
0.000194098
4.1584e-05
4.08613e-05
4.14039e-05
4.21978e-05
0.000209975
3.94076e-05
3.95485e-05
4.06203e-05
4.34664e-05
0.000229322
4.69317e-05
4.78387e-05
4.92984e-05
5.0817e-05
5.23381e-05
5.38364e-05
5.52949e-05
5.67018e-05
5.80492e-05
5.93323e-05
6.05489e-05
6.16983e-05
6.27814e-05
6.38e-05
6.47566e-05
6.5654e-05
6.64953e-05
6.72838e-05
6.80227e-05
6.87149e-05
6.93635e-05
6.99711e-05
7.05403e-05
7.10734e-05
7.15724e-05
7.20393e-05
7.24758e-05
7.28834e-05
7.32636e-05
7.36178e-05
7.39477e-05
7.42548e-05
7.45415e-05
7.48107e-05
7.50672e-05
7.53184e-05
7.5577e-05
7.58266e-05
7.60334e-05
7.62174e-05
7.63808e-05
7.65246e-05
7.6649e-05
7.67542e-05
7.68396e-05
7.69051e-05
7.69499e-05
7.69735e-05
7.69749e-05
7.69534e-05
7.69077e-05
7.68366e-05
7.67387e-05
7.66122e-05
7.64553e-05
7.62658e-05
7.60414e-05
7.57795e-05
7.5477e-05
7.51311e-05
7.47382e-05
7.42949e-05
7.37975e-05
7.32422e-05
7.26251e-05
7.19422e-05
7.11897e-05
7.0364e-05
6.94617e-05
6.848e-05
6.7417e-05
6.62714e-05
6.50434e-05
6.37347e-05
6.23486e-05
6.08909e-05
5.93694e-05
5.7794e-05
5.61775e-05
5.4535e-05
5.2878e-05
5.12184e-05
4.96193e-05
4.84058e-05
4.83845e-05
4.82882e-05
4.72725e-05
4.66856e-05
0.000214953
0.000215754
0.000219305
0.000199754
4.11037e-05
4.21076e-05
0.000205841
0.000204664
0.000202658
0.000200223
0.000195486
0.000186422
0.000185678
3.99934e-05
4.19559e-05
0.000206616
0.000207136
0.000205373
0.000201824
0.000195533
0.000184983
3.96689e-05
4.06494e-05
0.000193755
0.000185052
0.000186509
4.083e-05
0.000201692
0.000197115
4.03031e-05
0.000198749
3.9978e-05
0.000204758
0.000199187
0.000189087
0.000204414
0.000201549
0.000192306
3.52331e-05
0.000196986
0.000194264
0.000187479
0.000180029
0.000172762
0.000165543
0.00015844
0.000151532
0.000144884
0.000138538
0.000132514
0.00012681
0.000121396
0.00011622
0.000111201
0.00010623
0.000101086
9.56864e-05
1.11037e-05
6.42251e-05
0.000118307
0.00016499
0.000204551
0.000237711
0.000265148
0.000287497
0.000305363
0.000319315
0.000329878
0.000337527
0.000342664
0.000345605
0.000346303
0.000344958
0.000341505
0.000335453
0.000325857
0.00031277
0.000303403
0.000299047
0.000287857
0.000250152
0.000260864
0.00023785
0.000234408
0.000236111
0.000241268
0.000258505
0.000244415
0.000244038
0.000247494
0.00025506
0.000268762
0.000258889
0.000260456
0.000264529
0.00026984
0.000276103
0.000283182
0.000290968
0.000299351
0.000308219
0.000317458
0.000326956
0.000336605
0.00034631
0.000355985
0.000365562
0.000374985
0.000384214
0.000393223
0.000401999
0.000410536
0.00041884
0.000426919
0.000434788
0.000442464
0.000449964
0.000457308
0.000464509
0.000471584
0.000478541
0.000485384
0.00049211
0.000498708
0.000505153
0.000511405
0.000517405
0.000523065
0.000528282
0.000532995
0.000537626
0.000542261
0.000546916
0.000551591
0.000556289
0.00056101
0.000565752
0.000570513
0.000575287
0.000580069
0.00058485
0.000589619
0.000594362
0.000599064
0.000603705
0.000608263
0.00061271
0.000617018
0.000621152
0.000625073
0.000628737
0.000632096
0.000635098
0.000637685
0.000639795
0.000641363
0.000642318
0.000642588
0.000642101
0.000640782
0.000638558
0.000635359
0.000631122
0.000625789
0.000619312
0.000611656
0.000602796
0.000592721
0.000581425
0.000568899
0.000555108
0.000539966
0.000523307
0.00050493
0.000484723
0.000462699
0.000436938
0.000393128
0.000378869
0.000377506
0.000448054
0.000450348
0.000452234
0.00039249
0.000306626
0.000316095
0.00041852
0.000419989
0.000413912
0.000405457
0.000387311
0.000352735
0.000340036
0.000276128
0.000300793
0.000452068
0.000464572
0.000457916
0.000439753
0.000402209
0.000340788
0.000269443
0.000287843
0.000400144
0.000354654
0.000349194
0.000295845
0.000433582
0.00039672
0.000292789
0.000410039
0.000294751
0.000459576
0.000445989
0.000387042
0.000472095
0.000471831
0.000421985
0.000261013
0.00045376
0.000466412
0.000455155
0.000440944
0.00042625
0.000411272
0.000396251
0.000381438
0.000367056
0.000353273
0.000340198
0.00032786
0.000316214
0.000305133
0.000294389
0.000283659
0.000272282
0.000258548
1.65952e-05
8.12937e-05
0.000150617
0.000212842
0.000266914
0.000313148
0.000352061
0.000384208
0.000410151
0.000430452
0.000445663
0.00045632
0.000462929
0.000465856
0.000465282
0.000461805
0.000455973
0.000448289
0.000439343
0.000430282
0.000423152
0.000418186
0.000412881
0.000406028
0.00040417
0.000400718
0.000400248
0.000401762
0.000404737
0.000409017
0.000410989
0.000415925
0.000423449
0.000433413
0.000445028
0.00045545
0.000469609
0.000486545
0.000505699
0.000526724
0.000549304
0.000573115
0.000597828
0.000623121
0.00064869
0.000674259
0.000699591
0.000724491
0.000748806
0.000772423
0.000795267
0.000817295
0.00083849
0.000858855
0.000878411
0.000897188
0.000915224
0.00093256
0.00094924
0.000965305
0.000980794
0.000995739
0.00101017
0.00102411
0.00103757
0.00105055
0.00106306
0.00107506
0.00108655
0.00109749
0.00110784
0.00111756
0.00112704
0.00113641
0.00114574
0.00115502
0.00116428
0.00117351
0.00118272
0.00119191
0.00120108
0.00121023
0.00121935
0.00122843
0.00123745
0.0012464
0.00125524
0.00126396
0.0012725
0.00128082
0.00128886
0.00129657
0.00130388
0.00131069
0.00131693
0.00132248
0.00132725
0.00133111
0.00133394
0.00133559
0.00133594
0.00133483
0.00133213
0.00132769
0.00132137
0.00131306
0.00130263
0.00128999
0.00127506
0.00125779
0.00123816
0.00121613
0.00119169
0.00116482
0.00113547
0.0011036
0.00106926
0.00103274
0.000994466
0.000953858
0.000907749
0.000877152
0.000858605
0.000862998
0.000847273
0.000826223
0.000781469
0.000731559
0.000728462
0.000755882
0.000749147
0.000738692
0.000727531
0.000712251
0.000692754
0.000684433
0.000661961
0.000687072
0.00075102
0.000758413
0.00075219
0.000737585
0.000712818
0.000680428
0.000649546
0.000667094
0.000709623
0.00068982
0.000690249
0.000681757
0.000738609
0.000720358
0.000680734
0.000728205
0.00068667
0.000758625
0.000748554
0.000720102
0.000762945
0.000759685
0.000720934
0.000635428
0.00073595
0.00074061
0.000723866
0.000702875
0.000680705
0.000657893
0.000634864
0.000612033
0.000589775
0.000568391
0.000548084
0.000528938
0.000510912
0.000493835
0.000477387
0.000461097
0.000444172
0.000425215
2.25925e-05
0.000102245
0.000188448
0.000265216
0.00033117
0.000386933
0.000433362
0.000471283
0.000501459
0.000524613
0.000541444
0.000552648
0.000558946
0.000560683
0.000558741
0.00055405
0.000547542
0.000540143
0.000532747
0.000526515
0.000522229
0.000519884
0.000518896
0.000518937
0.00052049
0.000523089
0.000527228
0.000532978
0.000540433
0.000549741
0.000560919
0.000574967
0.000592161
0.000612563
0.000635983
0.000662109
0.000691532
0.000723864
0.000758599
0.000795242
0.000833308
0.000872321
0.000911835
0.000951442
0.000990787
0.00102957
0.00106754
0.00110453
0.00114038
0.001175
0.00120835
0.0012404
0.00127114
0.00130061
0.00132883
0.00135584
0.0013817
0.00140646
0.00143016
0.00145286
0.00147461
0.00149544
0.00151539
0.00153449
0.00155278
0.00157027
0.00158698
0.00160294
0.00161814
0.00163261
0.00164636
0.00165943
0.00167209
0.00168458
0.00169689
0.00170901
0.00172094
0.00173271
0.00174431
0.00175575
0.00176704
0.00177817
0.00178915
0.00179997
0.0018106
0.00182103
0.00183124
0.00184118
0.00185081
0.00186008
0.00186892
0.00187726
0.001885
0.00189206
0.00189832
0.00190366
0.00190793
0.00191099
0.00191269
0.00191285
0.00191131
0.00190787
0.00190238
0.00189465
0.00188452
0.00187184
0.00185649
0.00183836
0.00181737
0.00179349
0.00176669
0.00173701
0.00170448
0.00166915
0.00163109
0.00159043
0.00154739
0.00150241
0.00145611
0.00140895
0.00136146
0.00131991
0.0012846
0.00125718
0.00122655
0.00119429
0.00115584
0.00111971
0.00110134
0.00109368
0.00107877
0.00106407
0.00105064
0.0010373
0.00102499
0.0010187
0.00101271
0.00102354
0.00104346
0.00104529
0.00104041
0.00103136
0.00101862
0.00100513
0.000996414
0.00100404
0.00101568
0.00100916
0.00101172
0.00101547
0.00103358
0.00102654
0.00101557
0.0010292
0.00101818
0.0010386
0.00103044
0.00101638
0.00102921
0.00102154
0.000995111
0.000958286
0.000987369
0.000978641
0.000955789
0.000928755
0.000900111
0.000870564
0.000840672
0.000810971
0.000781955
0.000754028
0.000727476
0.000702439
0.000678897
0.000656665
0.000635392
0.000614564
0.000593444
0.000571079
2.87639e-05
0.000124744
0.000227554
0.000317727
0.000394073
0.000457685
0.000509843
0.000551718
0.000584363
0.000608764
0.000625869
0.00063664
0.000641817
0.000642333
0.000639368
0.000634224
0.000628083
0.000622034
0.000616996
0.000613673
0.000612446
0.000613332
0.000616123
0.000620644
0.000626903
0.000634957
0.000645056
0.000657488
0.000672587
0.000690706
0.000712184
0.000737403
0.000766529
0.000799544
0.000836253
0.000876363
0.000919591
0.000965434
0.00101332
0.00106268
0.00111298
0.00116372
0.00121445
0.00126479
0.00131441
0.00136304
0.00141046
0.0014565
0.00150106
0.00154406
0.00158545
0.0016252
0.00166334
0.00169987
0.00173484
0.00176827
0.00180023
0.00183075
0.00185989
0.0018877
0.00191422
0.00193951
0.00196361
0.00198655
0.00200838
0.00202914
0.00204886
0.00206757
0.00208533
0.00210215
0.00211809
0.00213321
0.00214755
0.00216156
0.0021752
0.00218844
0.00220129
0.00221376
0.00222586
0.0022376
0.00224899
0.00226003
0.00227074
0.00228109
0.00229109
0.00230073
0.00230997
0.00231879
0.00232714
0.00233499
0.00234226
0.00234888
0.00235477
0.00235984
0.00236395
0.002367
0.00236884
0.00236932
0.00236827
0.00236552
0.0023609
0.00235422
0.0023453
0.00233396
0.00232004
0.0023034
0.0022839
0.00226145
0.00223601
0.00220756
0.00217611
0.00214175
0.00210457
0.00206471
0.00202234
0.00197767
0.00193102
0.00188281
0.00183359
0.00178396
0.00173472
0.00168786
0.00164407
0.00160373
0.00156459
0.00152638
0.00148812
0.00145317
0.00142592
0.00140419
0.00138319
0.00136449
0.00134827
0.00133407
0.00132235
0.00131458
0.00130937
0.00131007
0.00131328
0.00131129
0.00130674
0.00130068
0.00129376
0.00128766
0.00128469
0.00128655
0.00128868
0.00128625
0.0012877
0.00129034
0.00129476
0.00129087
0.00128619
0.00128731
0.00128148
0.00128238
0.00127331
0.00126185
0.00125872
0.00124625
0.00122447
0.00120115
0.00119676
0.00117701
0.0011483
0.00111601
0.00108192
0.0010468
0.00101126
0.000975944
0.000941413
0.000908153
0.000876515
0.000846682
0.000818659
0.000792263
0.000767141
0.000742783
0.000718562
0.000693842
3.48993e-05
0.000146724
0.000264689
0.00036706
0.000452827
0.00052348
0.000580708
0.000626
0.000660657
0.000686012
0.000703333
0.000713795
0.000718416
0.000718592
0.000715727
0.000711202
0.000706288
0.00070207
0.000699388
0.000698808
0.00070062
0.000704896
0.000711593
0.000720682
0.000732236
0.000746436
0.000763574
0.000783993
0.000808046
0.000836043
0.000868212
0.000904664
0.000945345
0.000990039
0.00103839
0.00108996
0.00114423
0.00120063
0.00125858
0.00131751
0.00137693
0.00143636
0.00149541
0.00155372
0.001611
0.00166701
0.00172157
0.00177453
0.00182577
0.00187523
0.00192286
0.00196863
0.00201255
0.00205463
0.0020949
0.00213338
0.00217011
0.00220515
0.00223853
0.0022703
0.00230052
0.00232922
0.00235646
0.00238228
0.00240672
0.00242984
0.00245166
0.00247225
0.00249163
0.00250987
0.002527
0.00254306
0.00255809
0.00257247
0.00258623
0.00259936
0.00261185
0.00262372
0.00263498
0.00264564
0.00265573
0.00266524
0.00267419
0.00268259
0.00269043
0.00269772
0.00270443
0.00271056
0.00271606
0.00272092
0.00272507
0.00272846
0.00273103
0.00273268
0.00273332
0.00273284
0.00273112
0.00272801
0.00272338
0.00271707
0.0027089
0.0026987
0.00268632
0.00267158
0.00265433
0.00263443
0.00261178
0.00258629
0.00255791
0.00252667
0.0024926
0.0024558
0.00241643
0.00237468
0.00233077
0.00228497
0.00223762
0.0021891
0.00213983
0.00209029
0.00204103
0.00199284
0.00194622
0.00190146
0.00185859
0.00181747
0.00177807
0.00174169
0.00170975
0.00168177
0.00165656
0.00163439
0.00161521
0.00159873
0.00158501
0.00157435
0.00156619
0.00156086
0.00155696
0.00155212
0.00154677
0.00154125
0.00153588
0.00153134
0.00152847
0.00152709
0.00152562
0.00152313
0.00152209
0.00152126
0.00151971
0.00151494
0.00150941
0.00150445
0.00149671
0.00148922
0.00147746
0.00146386
0.00145159
0.00143425
0.0014117
0.00138804
0.00136787
0.00133995
0.00130597
0.00126903
0.00123028
0.00119046
0.00115025
0.00111034
0.00107135
0.00103381
0.000998133
0.000964525
0.000933005
0.000903392
0.00087533
0.000848329
0.000821848
0.000795435
4.08179e-05
0.000166129
0.000297844
0.000411545
0.000506168
0.000583525
0.000645653
0.000694427
0.000731541
0.000758577
0.000777068
0.000788148
0.000793376
0.0007943
0.000792444
0.000789256
0.000786034
0.000783859
0.000783557
0.000785688
0.000790583
0.000798412
0.00080927
0.000823254
0.000840525
0.000861311
0.000885891
0.000914551
0.00094753
0.000984981
0.00102694
0.00107329
0.00112379
0.00117807
0.00123567
0.00129606
0.00135868
0.00142297
0.00148837
0.00155438
0.00162052
0.00168639
0.00175162
0.0018159
0.00187897
0.00194061
0.00200065
0.00205893
0.00211537
0.00216987
0.0022224
0.00227291
0.0023214
0.00236787
0.00241233
0.0024548
0.00249533
0.00253393
0.00257066
0.00260555
0.00263864
0.00266999
0.00269964
0.00272762
0.002754
0.00277881
0.00280209
0.0028239
0.00284427
0.00286326
0.0028809
0.00289724
0.00291231
0.00292627
0.00293938
0.00295161
0.00296296
0.00297342
0.00298303
0.0029918
0.00299973
0.00300686
0.00301319
0.00301875
0.00302354
0.00302757
0.00303084
0.00303335
0.00303509
0.00303605
0.00303619
0.00303548
0.00303388
0.00303133
0.00302776
0.00302309
0.00301723
0.00301006
0.00300149
0.00299136
0.00297955
0.00296592
0.0029503
0.00293256
0.00291257
0.00289018
0.00286531
0.00283787
0.00280783
0.00277519
0.00274
0.00270238
0.00266247
0.0026205
0.00257672
0.00253143
0.00248495
0.00243763
0.00238983
0.00234189
0.00229414
0.00224698
0.00220071
0.00215554
0.00211198
0.00207015
0.00203024
0.00199288
0.00195867
0.00192767
0.00189968
0.00187478
0.00185289
0.00183383
0.0018175
0.00180382
0.00179245
0.00178315
0.00177526
0.00176791
0.00176099
0.0017545
0.00174848
0.00174306
0.00173856
0.00173463
0.00173063
0.00172634
0.00172235
0.00171796
0.00171248
0.00170518
0.00169679
0.00168747
0.00167621
0.00166355
0.0016482
0.00163087
0.0016123
0.00159015
0.0015643
0.00153646
0.00150732
0.00147304
0.00143439
0.0013932
0.00135029
0.00130637
0.00126215
0.00121837
0.00117569
0.00113471
0.00109584
0.00105933
0.00102518
0.000993202
0.00096302
0.000934143
0.000906079
0.000878454
4.64835e-05
0.000182889
0.000326659
0.000450808
0.000553937
0.000638035
0.000705434
0.000758323
0.000798694
0.000828399
0.000848828
0.000861673
0.000868608
0.000871272
0.000871249
0.00087002
0.000868909
0.000869026
0.000871237
0.000876171
0.000884254
0.000895769
0.000910924
0.000929903
0.000952903
0.000980133
0.0010118
0.00104806
0.001089
0.00113459
0.00118469
0.00123904
0.00129726
0.0013589
0.00142345
0.00149038
0.00155914
0.0016292
0.00170006
0.00177125
0.00184235
0.001913
0.00198286
0.00205165
0.00211912
0.00218507
0.00224933
0.00231177
0.00237226
0.00243074
0.00248713
0.0025414
0.00259353
0.0026435
0.00269131
0.00273699
0.00278055
0.00282201
0.00286141
0.00289878
0.00293416
0.00296759
0.00299911
0.00302876
0.00305658
0.00308263
0.00310693
0.00312953
0.00315047
0.00316979
0.00318753
0.00320372
0.00321841
0.00323162
0.0032437
0.00325464
0.00326444
0.00327311
0.00328067
0.00328713
0.00329252
0.00329686
0.00330018
0.00330248
0.00330381
0.00330416
0.00330357
0.00330204
0.00329958
0.0032962
0.0032919
0.00328667
0.00328049
0.00327335
0.00326522
0.00325604
0.00324577
0.00323434
0.00322168
0.00320769
0.00319228
0.00317534
0.00315675
0.00313638
0.00311413
0.00308988
0.00306352
0.00303497
0.0030042
0.00297118
0.00293595
0.00289859
0.00285926
0.00281815
0.00277551
0.00273164
0.00268687
0.00264152
0.00259591
0.0025503
0.00250494
0.00246004
0.00241574
0.00237216
0.00232976
0.00228877
0.00224944
0.00221214
0.00217722
0.00214491
0.0021153
0.00208848
0.00206443
0.00204305
0.00202424
0.00200785
0.00199363
0.0019813
0.00197048
0.00196072
0.00195179
0.00194354
0.00193584
0.00192859
0.00192185
0.0019154
0.00190887
0.00190206
0.00189499
0.00188721
0.00187825
0.00186782
0.00185604
0.00184282
0.00182773
0.00181077
0.00179149
0.00176997
0.00174626
0.00171944
0.00168938
0.00165669
0.00162123
0.00158167
0.00153876
0.00149357
0.00144678
0.0013991
0.00135127
0.00130407
0.00125822
0.00121435
0.00117293
0.00113419
0.00109814
0.00106453
0.00103295
0.00100287
0.000973798
0.000945362
5.15515e-05
0.000197484
0.000351807
0.000485407
0.000596581
0.000687394
0.000760383
0.000817976
0.0008624
0.000895422
0.000918875
0.000934576
0.000944262
0.000949612
0.000952228
0.00095361
0.000955102
0.000957861
0.000962823
0.000970711
0.000982061
0.000997261
0.0010166
0.00104032
0.0010686
0.0011016
0.00113941
0.00118208
0.00122953
0.00128159
0.00133801
0.00139841
0.00146237
0.0015294
0.00159899
0.00167063
0.00174379
0.001818
0.0018928
0.00196776
0.0020425
0.00211668
0.00218999
0.00226218
0.002333
0.00240227
0.0024698
0.00253547
0.00259916
0.00266077
0.00272024
0.00277752
0.00283256
0.00288536
0.00293589
0.00298416
0.00303018
0.00307396
0.00311553
0.00315492
0.00319215
0.00322726
0.00326029
0.00329126
0.00332022
0.0033472
0.00337224
0.00339538
0.00341665
0.00343608
0.00345372
0.00346958
0.00348369
0.00349607
0.00350699
0.00351651
0.00352465
0.00353142
0.00353683
0.0035409
0.00354367
0.00354515
0.00354537
0.00354435
0.00354214
0.00353874
0.0035342
0.00352854
0.0035218
0.00351398
0.00350513
0.00349526
0.00348439
0.00347253
0.0034597
0.00344589
0.0034311
0.00341531
0.0033985
0.00338062
0.00336163
0.00334146
0.00332003
0.00329726
0.00327305
0.0032473
0.00321991
0.0031908
0.00315991
0.00312718
0.00309262
0.00305627
0.00301824
0.00297869
0.00293784
0.00289595
0.00285336
0.00281035
0.00276725
0.00272429
0.00268168
0.00263955
0.00259796
0.00255693
0.00251674
0.00247763
0.00243983
0.00240356
0.00236908
0.00233663
0.00230636
0.00227843
0.00225287
0.00222968
0.0022088
0.00219011
0.00217345
0.00215859
0.00214525
0.00213315
0.00212203
0.00211167
0.00210185
0.00209241
0.00208319
0.00207415
0.00206494
0.00205536
0.0020452
0.00203413
0.00202183
0.00200808
0.00199279
0.00197582
0.0019569
0.00193591
0.00191259
0.00188684
0.00185853
0.0018272
0.00179274
0.0017553
0.00171469
0.00167051
0.00162361
0.00157458
0.00152407
0.0014728
0.00142154
0.00137113
0.00132237
0.00127596
0.00123238
0.00119189
0.00115448
0.00111984
0.00108748
0.00105679
0.00102721
0.000998327
5.59021e-05
0.00020975
0.000373133
0.000515153
0.000633877
0.000731337
0.000810177
0.00087299
0.000921951
0.000959152
0.000986595
0.00100614
0.00101954
0.00102847
0.00103452
0.00103919
0.00104384
0.00104965
0.00105765
0.00106864
0.00108325
0.00110197
0.00112515
0.00115304
0.00118581
0.00122357
0.00126631
0.00131396
0.00136636
0.00142323
0.00148423
0.00154897
0.00161698
0.00168777
0.00176087
0.00183577
0.001912
0.00198911
0.00206668
0.00214433
0.00222169
0.00229845
0.00237431
0.00244904
0.0025224
0.0025942
0.00266427
0.00273246
0.00279866
0.00286277
0.0029247
0.00298439
0.0030418
0.0030969
0.00314965
0.00320006
0.00324811
0.00329383
0.00333721
0.00337828
0.00341706
0.00345358
0.00348786
0.00351993
0.00354983
0.00357758
0.00360321
0.00362677
0.00364826
0.00366774
0.00368521
0.00370071
0.00371426
0.0037259
0.00373567
0.00374382
0.00375037
0.00375532
0.00375869
0.00376049
0.00376076
0.00375952
0.00375679
0.00375261
0.00374701
0.00374002
0.00373169
0.00372205
0.00371115
0.00369902
0.00368572
0.00367129
0.00365579
0.00363925
0.00362174
0.00360329
0.00358395
0.00356375
0.00354273
0.0035209
0.00349827
0.00347483
0.00345055
0.00342538
0.00339928
0.00337215
0.00334392
0.0033145
0.00328379
0.00325173
0.00321826
0.00318338
0.00314712
0.00310959
0.00307095
0.00303144
0.00299131
0.00295088
0.00291043
0.00287021
0.00283044
0.00279122
0.00275259
0.00271452
0.00267705
0.00264044
0.00260484
0.00257037
0.0025372
0.0025055
0.00247543
0.00244717
0.0024208
0.00239639
0.00237394
0.00235341
0.0023347
0.00231766
0.00230209
0.00228776
0.00227442
0.00226183
0.00224976
0.00223798
0.00222626
0.00221459
0.00220267
0.00219024
0.00217704
0.00216279
0.00214723
0.00213013
0.00211136
0.00209073
0.00206805
0.00204315
0.00201584
0.00198596
0.00195332
0.00191768
0.0018789
0.00183698
0.00179179
0.00174354
0.0016928
0.00164005
0.00158591
0.00153111
0.00147649
0.00142294
0.00137135
0.00132249
0.00127694
0.00123497
0.00119655
0.00116132
0.00112868
0.00109788
0.00106825
0.00103925
5.93846e-05
0.000219544
0.00039047
0.000539795
0.000665488
0.000769426
0.000854266
0.000922515
0.000976588
0.00101874
0.001051
0.00107523
0.00109318
0.0011065
0.00111672
0.00112534
0.00113369
0.00114298
0.00115428
0.00116848
0.00118627
0.00120822
0.00123473
0.00126608
0.00130242
0.00134381
0.0013902
0.00144145
0.00149731
0.00155749
0.0016216
0.00168922
0.00175989
0.00183315
0.00190852
0.00198556
0.0020638
0.00214284
0.00222228
0.00230175
0.00238093
0.00245952
0.00253723
0.00261382
0.00268907
0.00276278
0.0028348
0.00290495
0.00297313
0.00303922
0.00310313
0.00316479
0.00322413
0.00328113
0.00333573
0.00338793
0.00343771
0.00348506
0.00353
0.00357252
0.00361264
0.00365038
0.00368577
0.00371881
0.00374954
0.00377799
0.00380416
0.0038281
0.00384982
0.00386935
0.00388671
0.00390191
0.00391499
0.00392595
0.0039348
0.00394179
0.00394694
0.00395028
0.00395183
0.00395161
0.00394963
0.00394593
0.00394054
0.00393349
0.0039248
0.00391453
0.0039027
0.00388938
0.00387461
0.00385844
0.00384094
0.00382218
0.00380224
0.00378118
0.0037591
0.00373607
0.00371221
0.00368758
0.00366228
0.00363639
0.00360998
0.00358311
0.0035558
0.00352808
0.00349993
0.00347131
0.00344217
0.00341241
0.00338193
0.00335064
0.00331843
0.00328524
0.00325103
0.00321582
0.0031797
0.00314283
0.00310541
0.00306772
0.00303003
0.00299259
0.00295564
0.00291931
0.00288364
0.00284858
0.00281406
0.00278027
0.00274729
0.00271516
0.00268393
0.00265371
0.0026246
0.00259674
0.00257025
0.00254524
0.00252178
0.0024999
0.00247957
0.0024607
0.00244316
0.00242676
0.0024113
0.00239654
0.00238222
0.00236811
0.00235394
0.0023397
0.00232509
0.00230985
0.0022937
0.00227638
0.00225763
0.00223726
0.00221507
0.0021909
0.00216456
0.00213587
0.00210467
0.00207078
0.00203404
0.00199426
0.00195133
0.00190519
0.00185592
0.00180392
0.00174952
0.00169318
0.0016355
0.00157723
0.00151926
0.00146255
0.00140808
0.00135674
0.0013092
0.00126582
0.00122655
0.00119099
0.00115841
0.00112789
0.00109859
0.0010698
6.19673e-05
0.000226962
0.000403815
0.000559215
0.000691162
0.000801287
0.000892005
0.000965949
0.00102563
0.00107331
0.00111103
0.00114062
0.00116381
0.00118216
0.0011972
0.00121032
0.00122285
0.001236
0.00125085
0.00126831
0.00128917
0.00131402
0.00134333
0.0013774
0.00141639
0.00146035
0.00150922
0.00156281
0.00162087
0.00168308
0.00174905
0.00181836
0.00189057
0.00196524
0.00204192
0.00212018
0.0021996
0.00227978
0.00236035
0.00244098
0.00252134
0.00260114
0.00268012
0.00275802
0.00283464
0.00290978
0.00298326
0.00305494
0.00312466
0.00319233
0.00325783
0.0033211
0.00338205
0.00344063
0.0034968