/*--------------------------------*- C++ -*----------------------------------*\
  =========                 |
  \\      /  F ield         | OpenFOAM: The Open Source CFD Toolbox
   \\    /   O peration     | Website:  https://openfoam.org
    \\  /    A nd           | Version:  9
     \\/     M anipulation  |
\*---------------------------------------------------------------------------*/
FoamFile
{
    format      ascii;
    class       volScalarField;
    location    "0.17";
    object      p;
}
// * * * * * * * * * * * * * * * * * * * * * * * * * * * * * * * * * * * * * //

dimensions      [0 2 -2 0 0 0 0];

internalField   nonuniform List<scalar> 
12225
(
5.17573
4.87007
4.78174
4.77318
4.77086
4.77129
4.77583
4.78221
4.78866
4.79423
4.7978
4.79774
4.79172
4.77644
4.74644
4.69422
4.61451
4.48321
4.77872
4.78598
4.77597
4.77487
4.77281
4.77278
4.77677
4.7827
4.7888
4.79406
4.79733
4.79693
4.79052
4.77476
4.74414
4.69166
4.60753
4.48196
4.73094
4.78895
4.7803
4.77619
4.77421
4.77406
4.7774
4.78264
4.78815
4.79288
4.79561
4.79469
4.78778
4.77164
4.74109
4.69057
4.61195
4.49344
4.75978
4.79338
4.77914
4.77416
4.77285
4.77286
4.7757
4.78022
4.78497
4.78889
4.79077
4.78898
4.78126
4.76459
4.7344
4.68657
4.61364
4.4984
4.76413
4.7835
4.77234
4.76906
4.76856
4.76882
4.77125
4.77502
4.77884
4.78171
4.78243
4.77943
4.77059
4.75315
4.72323
4.67741
4.60853
4.5003
4.75331
4.7691
4.76323
4.76172
4.76185
4.76232
4.76432
4.76725
4.77
4.77162
4.77095
4.76649
4.75631
4.73791
4.70799
4.66337
4.59762
4.49988
4.74132
4.7553
4.75305
4.7527
4.75324
4.7538
4.7553
4.7573
4.75886
4.7591
4.7569
4.75088
4.73926
4.71982
4.68973
4.64597
4.58339
4.49712
4.73051
4.74231
4.74213
4.74249
4.74323
4.74371
4.7446
4.7456
4.74592
4.74471
4.74096
4.73338
4.72036
4.69996
4.66974
4.62693
4.5681
4.49262
4.72009
4.72977
4.73078
4.73154
4.73225
4.73246
4.73265
4.73259
4.73162
4.72898
4.72373
4.71468
4.70042
4.67926
4.64912
4.60768
4.55308
4.48692
4.70969
4.71766
4.71932
4.72019
4.72064
4.72038
4.71974
4.71855
4.71626
4.71219
4.70548
4.69509
4.67977
4.65807
4.6283
4.58861
4.53832
4.47971
4.69956
4.7062
4.70809
4.70882
4.7088
4.70789
4.70632
4.70396
4.70037
4.69493
4.6869
4.67536
4.65925
4.63736
4.60833
4.57077
4.52467
4.47194
4.68916
4.69528
4.69707
4.69738
4.69664
4.69486
4.69221
4.68862
4.68371
4.67698
4.6678
4.65539
4.63889
4.61735
4.58971
4.55498
4.51329
4.46625
4.67939
4.6853
4.68684
4.68658
4.68502
4.68229
4.67853
4.67371
4.66754
4.65961
4.64942
4.63635
4.61974
4.59888
4.57303
4.54154
4.50462
4.46338
4.6719
4.67733
4.67855
4.67779
4.67555
4.67206
4.66744
4.66168
4.65458
4.64583
4.63504
4.62173
4.60544
4.58565
4.56188
4.53374
4.50143
4.46556
4.66706
4.67176
4.67263
4.6715
4.66879
4.6648
4.65963
4.65331
4.64571
4.63659
4.62568
4.61263
4.59711
4.57878
4.55731
4.53246
4.50427
4.47311
4.66554
4.66926
4.66973
4.66832
4.66538
4.6612
4.65592
4.64954
4.64202
4.6332
4.62288
4.61085
4.59686
4.5807
4.56216
4.54103
4.51702
4.49059
4.66805
4.67054
4.67054
4.66889
4.66591
4.66185
4.65683
4.65089
4.644
4.63609
4.62704
4.61672
4.60496
4.59166
4.57668
4.55983
4.54042
4.51943
4.67531
4.67633
4.67573
4.6738
4.67086
4.66709
4.6626
4.65743
4.65157
4.645
4.63765
4.62946
4.62034
4.61026
4.59919
4.58692
4.57235
4.55727
4.68776
4.68674
4.68521
4.68276
4.6797
4.67614
4.67214
4.66771
4.66288
4.65764
4.65195
4.64579
4.63915
4.63202
4.62447
4.61626
4.60592
4.59594
4.70006
4.69745
4.695
4.69185
4.68841
4.68478
4.68098
4.67703
4.67295
4.66875
4.6644
4.65989
4.65521
4.65039
4.6455
4.64029
4.63306
4.62598
4.70859
4.70537
4.70227
4.69843
4.69451
4.69064
4.68684
4.68316
4.67961
4.67618
4.67287
4.66964
4.66649
4.66342
4.6605
4.65747
4.65251
4.64744
4.71501
4.71147
4.70769
4.703
4.69845
4.69419
4.69024
4.68665
4.68345
4.68062
4.67811
4.6759
4.67395
4.67225
4.67084
4.66948
4.66635
4.66277
4.71959
4.71618
4.71164
4.70596
4.70071
4.69598
4.69177
4.68818
4.68522
4.68283
4.68095
4.67953
4.67852
4.67789
4.67764
4.67756
4.67589
4.67331
4.72272
4.72008
4.71458
4.70781
4.70189
4.69664
4.6921
4.68845
4.68565
4.68361
4.68224
4.68147
4.68123
4.68146
4.68214
4.68308
4.68266
4.68081
4.72538
4.72438
4.71712
4.70903
4.70248
4.69662
4.69168
4.68793
4.68526
4.6835
4.68256
4.68233
4.68274
4.6837
4.68517
4.68699
4.6877
4.68652
4.72781
4.73087
4.72027
4.71014
4.70281
4.69621
4.6908
4.68694
4.68438
4.68286
4.68229
4.68255
4.68353
4.68513
4.6873
4.68989
4.6917
4.69125
4.71929
4.73703
4.72377
4.71132
4.70288
4.69538
4.68952
4.68562
4.68319
4.68194
4.68172
4.68243
4.68392
4.6861
4.6889
4.6922
4.69508
4.69556
4.68457
4.73113
4.7229
4.7114
4.70203
4.6936
4.68754
4.68382
4.6817
4.68079
4.68099
4.68216
4.68414
4.68686
4.69022
4.69414
4.69802
4.69974
4.70454
4.72021
4.71556
4.70918
4.69986
4.69074
4.6848
4.68156
4.67993
4.67951
4.68017
4.6818
4.68429
4.6875
4.69133
4.69573
4.70041
4.70376
5.0903
4.82442
4.73039
4.71079
4.6993
4.68946
4.68354
4.68055
4.67919
4.67901
4.67993
4.68185
4.68463
4.6881
4.69219
4.69683
4.7019
4.70656
-0.145779
-0.135035
-0.124644
-0.117565
-0.112487
-0.108541
-0.105507
-0.103096
-0.100898
-0.0985188
-0.0956392
-0.0920036
-0.0874309
-0.0820293
-0.0760872
-0.0698798
-0.063589
-0.0574064
-0.0517245
-0.0469705
-0.0438398
-0.0433565
-0.0445934
-0.0455596
-0.0510246
-0.0647159
-0.0798116
-0.0946523
-0.108761
-0.118414
-0.134619
-0.159341
-0.185373
-0.210647
-0.236126
-0.264891
-0.296601
-0.331113
-0.369659
-0.412651
-0.460202
-0.512139
-0.568046
-0.627325
-0.689256
-0.753053
-0.817917
-0.883076
-0.947821
-1.01152
-1.07363
-1.13369
-1.19134
-1.24628
-1.29827
-1.34715
-1.39276
-1.435
-1.47378
-1.50905
-1.54072
-1.56876
-1.5931
-1.61372
-1.63055
-1.64358
-1.65274
-1.65804
-1.65953
-1.65735
-1.65157
-1.64188
-1.62779
-1.60884
-1.58504
-1.55661
-1.52364
-1.48618
-1.44422
-1.39778
-1.34686
-1.2915
-1.23174
-1.16762
-1.09924
-1.02669
-0.950099
-0.869638
-0.785511
-0.697987
-0.607406
-0.514184
-0.418816
-0.321862
-0.223948
-0.125746
-0.0279789
0.0685997
0.163209
0.255059
0.343362
0.427354
0.506314
0.579584
0.646588
0.706853
0.76002
0.805855
0.844257
0.875256
0.899002
0.915751
0.925873
0.929819
0.927996
0.92085
0.90923
0.894147
0.877428
0.861409
0.833915
0.796901
0.76089
0.73052
0.705713
0.665553
0.62717
0.589118
0.539895
0.497591
0.455905
0.411508
0.366563
0.319249
0.282019
0.257388
0.218477
0.174105
0.14111
0.112539
0.0870065
0.0642575
0.0435535
0.0425479
0.0427985
0.0287496
0.0208372
0.0327878
0.0633752
0.081754
0.0945787
0.120039
0.150499
0.183263
0.218671
0.254791
0.28734
0.329262
0.376614
0.411168
0.444722
0.477902
0.506485
0.530221
0.549451
0.564139
0.574305
0.580029
0.581565
0.579302
0.57372
0.565342
0.554703
0.542323
0.528714
0.514423
0.50021
0.487241
0.479079
0.479366
-0.155906
-0.148092
-0.140555
-0.136237
-0.133787
-0.131549
-0.128862
-0.125478
-0.121229
-0.116013
-0.109813
-0.102696
-0.0948158
-0.0860879
-0.0765336
-0.0665681
-0.0568407
-0.0480126
-0.0405466
-0.0342618
-0.0287218
-0.0252375
-0.0249924
-0.0263202
-0.0317437
-0.0397929
-0.0478937
-0.0548176
-0.0603576
-0.0724961
-0.0924636
-0.113309
-0.132911
-0.153195
-0.179399
-0.210864
-0.244342
-0.281108
-0.322472
-0.36882
-0.420077
-0.475879
-0.535624
-0.598543
-0.663783
-0.730473
-0.797777
-0.86493
-0.931261
-0.996201
-1.05928
-1.12012
-1.17842
-1.23396
-1.28655
-1.33606
-1.38239
-1.42545
-1.46518
-1.50152
-1.53443
-1.56384
-1.58972
-1.61201
-1.63066
-1.64559
-1.65673
-1.66399
-1.66724
-1.66631
-1.66106
-1.65147
-1.63758
-1.61971
-1.59782
-1.57168
-1.54119
-1.50631
-1.46702
-1.42329
-1.37515
-1.32259
-1.26566
-1.2044
-1.13886
-1.06915
-0.995366
-0.917657
-0.836209
-0.751266
-0.663141
-0.572224
-0.478978
-0.383933
-0.287682
-0.190866
-0.0941698
0.00168582
0.0959545
0.187876
0.276691
0.361656
0.442065
0.517265
0.586674
0.649801
0.706256
0.755763
0.798162
0.833414
0.86159
0.882857
0.897478
0.905785
0.908063
0.904393
0.894827
0.880326
0.861632
0.83507
0.814842
0.798048
0.775471
0.744181
0.698438
0.664969
0.626238
0.583465
0.550411
0.50844
0.463223
0.419512
0.37607
0.33707
0.293851
0.240187
0.202439
0.175172
0.143594
0.114756
0.0902176
0.0698502
0.0563456
0.0354167
0.0222119
0.0283924
0.0362457
0.0383358
0.0354578
0.0535722
0.0816515
0.104458
0.132399
0.165712
0.20091
0.238548
0.277514
0.312255
0.346282
0.38787
0.422057
0.453375
0.482742
0.507031
0.526885
0.542197
0.553034
0.559547
0.561966
0.560646
0.556033
0.548625
0.538936
0.527477
0.514763
0.50135
0.488001
0.47576
0.467256
0.463906
-0.171231
-0.165141
-0.159244
-0.155672
-0.153036
-0.149795
-0.145411
-0.139811
-0.133029
-0.125141
-0.116262
-0.106542
-0.096114
-0.0850265
-0.0733901
-0.061551
-0.0498989
-0.0388913
-0.0290928
-0.0210186
-0.0150581
-0.0113221
-0.00918847
-0.00845078
-0.0108443
-0.0164382
-0.0223764
-0.0284183
-0.0350134
-0.045639
-0.0628871
-0.0839462
-0.107065
-0.132001
-0.16104
-0.195232
-0.233765
-0.276745
-0.324073
-0.375437
-0.430438
-0.488582
-0.549289
-0.611929
-0.675859
-0.740458
-0.805142
-0.86938
-0.932703
-0.994705
-1.05504
-1.11341
-1.16957
-1.22332
-1.2745
-1.32295
-1.36857
-1.41126
-1.45092
-1.48748
-1.52085
-1.55098
-1.5778
-1.60123
-1.62122
-1.63768
-1.65056
-1.65976
-1.66521
-1.66676
-1.66424
-1.65752
-1.64665
-1.63176
-1.61285
-1.58979
-1.56252
-1.53098
-1.49512
-1.45492
-1.41037
-1.36148
-1.30825
-1.25071
-1.18893
-1.12295
-1.05288
-0.978824
-0.900947
-0.81946
-0.734646
-0.646859
-0.556526
-0.464141
-0.370256
-0.275471
-0.180429
-0.0858067
0.00769281
0.0993503
0.188444
0.274263
0.356125
0.433392
0.505487
0.571907
0.632235
0.686151
0.733436
0.773971
0.807736
0.834795
0.855289
0.869417
0.877383
0.879307
0.875314
0.86615
0.852822
0.834474
0.816389
0.798067
0.775641
0.74602
0.708603
0.673235
0.635282
0.594228
0.556353
0.514842
0.470806
0.427021
0.383637
0.342048
0.298565
0.250682
0.210375
0.177747
0.145209
0.115417
0.0896155
0.0680258
0.0515131
0.0329068
0.0203406
0.0206351
0.024474
0.0264833
0.0282032
0.0432773
0.0669276
0.0895883
0.116376
0.147855
0.181645
0.217854
0.254714
0.289069
0.324725
0.363919
0.398125
0.429513
0.458891
0.483497
0.503992
0.520167
0.532017
0.539629
0.5432
0.543048
0.53959
0.5333
0.524678
0.514232
0.502477
0.489967
0.477431
0.465754
0.456819
0.450935
-0.186301
-0.18334
-0.179494
-0.176023
-0.171958
-0.166372
-0.159118
-0.150397
-0.140466
-0.129568
-0.117927
-0.10573
-0.0930436
-0.0799169
-0.0665765
-0.0533334
-0.0405546
-0.0285455
-0.0175995
-0.00821059
-0.000830679
0.00449206
0.00791117
0.00936009
0.00836627
0.00457006
-0.00123547
-0.00895324
-0.0190552
-0.0328956
-0.051823
-0.0755239
-0.103425
-0.135045
-0.17037
-0.209544
-0.252543
-0.299194
-0.349128
-0.401953
-0.45728
-0.514702
-0.573791
-0.634107
-0.695206
-0.756655
-0.818041
-0.878978
-0.93911
-0.998119
-1.05572
-1.11166
-1.16572
-1.21772
-1.26747
-1.31485
-1.35972
-1.40195
-1.44146
-1.47814
-1.5119
-1.54265
-1.5703
-1.59477
-1.61597
-1.63381
-1.6482
-1.65906
-1.6663
-1.66983
-1.66957
-1.66545
-1.65745
-1.64555
-1.62969
-1.60978
-1.58574
-1.55753
-1.52509
-1.48838
-1.44737
-1.40204
-1.35241
-1.29847
-1.24025
-1.17781
-1.11119
-1.04051
-0.965882
-0.887497
-0.805602
-0.720522
-0.63265
-0.542448
-0.450435
-0.357178
-0.263287
-0.169406
-0.0762098
0.0156111
0.105358
0.192338
0.275882
0.355354
0.430171
0.499814
0.563838
0.62188
0.673667
0.719015
0.757828
0.790089
0.815851
0.835225
0.848364
0.855462
0.856798
0.852943
0.844667
0.832243
0.816567
0.797816
0.775315
0.748308
0.716592
0.681893
0.644882
0.604809
0.564011
0.52213
0.478691
0.434579
0.390567
0.347095
0.303526
0.259258
0.217554
0.180525
0.146335
0.115306
0.0879769
0.0647209
0.0455841
0.0288108
0.0169323
0.0121411
0.0117851
0.0137454
0.0195302
0.0330642
0.0522554
0.0742264
0.100526
0.130346
0.162862
0.197386
0.232239
0.266735
0.304784
0.342199
0.376327
0.408843
0.438445
0.463493
0.484605
0.501531
0.514223
0.522724
0.52721
0.527981
0.525433
0.520028
0.512257
0.502619
0.49162
0.479792
0.467781
0.456316
0.44655
0.43879
-0.192597
-0.192701
-0.190871
-0.187384
-0.181635
-0.173413
-0.163049
-0.151078
-0.137996
-0.124218
-0.110077
-0.0956717
-0.0809991
-0.0662178
-0.0515933
-0.0373864
-0.0238791
-0.011355
-0.00010268
0.00958387
0.0174126
0.023178
0.0267398
0.0279198
0.0264434
0.0220557
0.0147259
0.00430387
-0.00960266
-0.0275895
-0.0501398
-0.0772688
-0.108779
-0.144461
-0.184038
-0.227118
-0.273324
-0.322296
-0.373671
-0.427095
-0.48223
-0.538748
-0.596322
-0.654627
-0.713342
-0.772155
-0.830765
-0.888888
-0.946259
-1.00263
-1.05778
-1.11149
-1.16358
-1.21388
-1.26224
-1.30851
-1.35256
-1.39427
-1.43354
-1.47024
-1.50428
-1.53556
-1.56399
-1.58945
-1.61186
-1.63112
-1.64714
-1.65981
-1.66905
-1.67476
-1.67687
-1.67531
-1.67003
-1.66095
-1.648
-1.63108
-1.61013
-1.58507
-1.55584
-1.52238
-1.48465
-1.44262
-1.39626
-1.34556
-1.29053
-1.23119
-1.16759
-1.09979
-1.02789
-0.95205
-0.872495
-0.789515
-0.703478
-0.614816
-0.524023
-0.431639
-0.338253
-0.244487
-0.150998
-0.0584636
0.0324276
0.120987
0.206543
0.28845
0.366107
0.438969
0.506554
0.568455
0.624346
0.673984
0.717208
0.753938
0.784169
0.807959
0.825434
0.836795
0.842364
0.842608
0.838036
0.82893
0.815669
0.79844
0.777304
0.75204
0.722324
0.689042
0.652757
0.613256
0.57205
0.529638
0.485937
0.44131
0.396474
0.352032
0.307841
0.263653
0.221274
0.182432
0.146796
0.114492
0.0858016
0.0610854
0.0404704
0.0233022
0.0106863
0.00370563
0.00135134
0.00274029
0.0088294
0.0211485
0.0382796
0.0593293
0.0848142
0.113475
0.145051
0.178561
0.212875
0.247711
0.285852
0.322808
0.357221
0.390492
0.420469
0.446124
0.46786
0.485445
0.498824
0.50803
0.51323
0.514715
0.512876
0.508167
0.501072
0.492081
0.481682
0.470372
0.458697
0.447253
0.43662
0.427492
-0.184672
-0.188465
-0.188988
-0.185798
-0.178556
-0.167749
-0.154297
-0.139124
-0.122984
-0.106433
-0.0897818
-0.0731357
-0.0566044
-0.0404227
-0.024808
-0.00998622
0.00380429
0.0163196
0.027315
0.0365452
0.0437603
0.0487123
0.0511544
0.0508221
0.047424
0.0406898
0.0304181
0.0163957
-0.00163629
-0.0239404
-0.0506465
-0.0816608
-0.116742
-0.155593
-0.197884
-0.243213
-0.291165
-0.341336
-0.393344
-0.446839
-0.501507
-0.557064
-0.61325
-0.669819
-0.726535
-0.783174
-0.839519
-0.895361
-0.9505
-1.00475
-1.05792
-1.10985
-1.16038
-1.20935
-1.25663
-1.30207
-1.34556
-1.38696
-1.42617
-1.46306
-1.49754
-1.52948
-1.5588
-1.58537
-1.60909
-1.62987
-1.64759
-1.66216
-1.67347
-1.68143
-1.68594
-1.68692
-1.6843
-1.67798
-1.66788
-1.65389
-1.63594
-1.61394
-1.58782
-1.55749
-1.52289
-1.48397
-1.44068
-1.393
-1.34091
-1.28441
-1.22351
-1.15825
-1.08873
-1.01506
-0.937437
-0.856137
-0.771496
-0.683925
-0.593893
-0.501922
-0.40858
-0.314478
-0.220262
-0.126602
-0.034187
0.0562914
0.14415
0.228728
0.309398
0.385582
0.456758
0.52247
0.582339
0.636062
0.683421
0.724279
0.758579
0.786342
0.807666
0.822737
0.831841
0.835367
0.833716
0.827158
0.815942
0.800285
0.780388
0.756261
0.72779
0.695406
0.659607
0.620574
0.57933
0.536488
0.492235
0.446998
0.401367
0.35589
0.310787
0.266171
0.223197
0.183185
0.146305
0.112765
0.0828401
0.0568314
0.0349008
0.0168774
0.00336776
-0.00500837
-0.00866905
-0.00799561
-0.00239306
0.00879924
0.0247592
0.0449404
0.069427
0.0972985
0.128185
0.161178
0.195442
0.230738
0.268437
0.305282
0.340145
0.373763
0.40414
0.430451
0.452819
0.471034
0.485038
0.494861
0.500669
0.502752
0.501501
0.497369
0.490837
0.482387
0.472485
0.461588
0.450152
0.438663
0.427294
0.41717
-0.160836
-0.166644
-0.170545
-0.16826
-0.159722
-0.146416
-0.129939
-0.111665
-0.0926162
-0.073427
-0.0543909
-0.035707
-0.0176308
-0.000386008
0.0158365
0.0308444
0.0444387
0.0564078
0.0665268
0.0745571
0.0802449
0.0833233
0.0835151
0.0805377
0.0741163
0.0640078
0.0500194
0.0319936
0.00980712
-0.0166007
-0.047174
-0.0817104
-0.119896
-0.161362
-0.205722
-0.252587
-0.301582
-0.352342
-0.404527
-0.457824
-0.511957
-0.56668
-0.621779
-0.677055
-0.732327
-0.787422
-0.842175
-0.896425
-0.950016
-1.0028
-1.05463
-1.10535
-1.15485
-1.20297
-1.24959
-1.29459
-1.33784
-1.37922
-1.41863
-1.45593
-1.49103
-1.5238
-1.55414
-1.58194
-1.60708
-1.62945
-1.64894
-1.66545
-1.67887
-1.68908
-1.69598
-1.6995
-1.69953
-1.69594
-1.68866
-1.67757
-1.66259
-1.64361
-1.62053
-1.59327
-1.56173
-1.52584
-1.48553
-1.44075
-1.39146
-1.33764
-1.27926
-1.21637
-1.149
-1.07726
-1.00133
-0.921448
-0.837931
-0.751166
-0.661603
-0.569746
-0.476152
-0.381419
-0.286186
-0.191124
-0.0969227
-0.00428376
0.0860953
0.173532
0.25737
0.336993
0.411836
0.481393
0.545227
0.60298
0.654375
0.69922
0.737409
0.768923
0.793829
0.812283
0.824528
0.830884
0.831689
0.827214
0.817688
0.803359
0.784479
0.761133
0.733362
0.701477
0.665939
0.62708
0.585674
0.542377
0.497543
0.451638
0.40521
0.358778
0.312732
0.267428
0.223747
0.182721
0.144721
0.110027
0.0789425
0.051754
0.0286561
0.00970679
-0.00470474
-0.0141909
-0.0188949
-0.0189632
-0.01403
-0.00379798
0.0112603
0.0307153
0.0544157
0.0816806
0.112067
0.144798
0.17915
0.214813
0.252212
0.289102
0.324429
0.358304
0.389103
0.416059
0.439062
0.457905
0.47251
0.482906
0.48926
0.491866
0.49112
0.487479
0.481426
0.473435
0.463953
0.453399
0.442146
0.4306
0.418651
0.407804
-0.11721
-0.12557
-0.133009
-0.131911
-0.122388
-0.106911
-0.0878124
-0.0668918
-0.0453517
-0.0238424
-0.00277395
0.0174887
0.0366561
0.0545221
0.0709059
0.085634
0.0985249
0.109381
0.117988
0.124111
0.1275
0.127896
0.125039
0.118682
0.108609
0.0946443
0.0766712
0.0546268
0.0285087
-0.00160981
-0.035561
-0.0730786
-0.113821
-0.157406
-0.203447
-0.251573
-0.301438
-0.352719
-0.405122
-0.458379
-0.512254
-0.566535
-0.621038
-0.675597
-0.730059
-0.784284
-0.838135
-0.891484
-0.944203
-0.996168
-1.04726
-1.09735
-1.14632
-1.19406
-1.24045
-1.28537
-1.32871
-1.37035
-1.41019
-1.44811
-1.484
-1.51774
-1.54922
-1.57833
-1.60495
-1.62896
-1.65027
-1.66874
-1.68427
-1.69674
-1.70604
-1.71207
-1.71471
-1.71385
-1.70938
-1.7012
-1.68917
-1.6732
-1.65317
-1.62895
-1.60046
-1.56757
-1.53022
-1.48831
-1.44177
-1.39056
-1.33465
-1.27402
-1.20872
-1.13881
-1.06444
-0.985841
-0.903301
-0.817186
-0.727928
-0.636014
-0.541989
-0.446442
-0.350009
-0.25336
-0.157192
-0.0622158
0.0308526
0.121305
0.208454
0.291641
0.370254
0.443732
0.511581
0.573383
0.628802
0.67759
0.719592
0.754743
0.783072
0.804699
0.819825
0.828716
0.831667
0.828948
0.820808
0.807523
0.789386
0.766553
0.739127
0.707418
0.671879
0.63292
0.591195
0.547355
0.501863
0.455214
0.407951
0.360599
0.313636
0.267542
0.223074
0.181084
0.142035
0.106261
0.0740845
0.045804
0.0216535
0.0017983
-0.0134851
-0.023931
-0.0295364
-0.0303262
-0.0260727
-0.0166435
-0.00233725
0.0164941
0.0395908
0.0663895
0.0964302
0.129027
0.163511
0.199471
0.236787
0.273837
0.309609
0.343799
0.375064
0.402653
0.426299
0.445773
0.460971
0.471917
0.478779
0.481858
0.481559
0.478347
0.472708
0.465115
0.455996
0.445735
0.434639
0.42305
0.410669
0.399304
-0.0486288
-0.0591681
-0.0705519
-0.0715051
-0.0620886
-0.0456327
-0.0250841
-0.00256238
0.0206464
0.0436887
0.0659476
0.0869836
0.106514
0.12433
0.140252
0.15411
0.165726
0.174903
0.181431
0.185082
0.185626
0.182833
0.176489
0.166411
0.152455
0.134533
0.112615
0.0867306
0.0569738
0.0235051
-0.0134448
-0.0535812
-0.096563
-0.142027
-0.189612
-0.238975
-0.289797
-0.341791
-0.394695
-0.448274
-0.50232
-0.556649
-0.611097
-0.665518
-0.719778
-0.773755
-0.827333
-0.8804
-0.932847
-0.984569
-1.03546
-1.08541
-1.13433
-1.1821
-1.22862
-1.27379
-1.3175
-1.35965
-1.40012
-1.43882
-1.47563
-1.51045
-1.54315
-1.57363
-1.60177
-1.62746
-1.65058
-1.67101
-1.68865
-1.70336
-1.71504
-1.72357
-1.72882
-1.73067
-1.72903
-1.72375
-1.71469
-1.70174
-1.68477
-1.66364
-1.63822
-1.60839
-1.57402
-1.53501
-1.49127
-1.44272
-1.38929
-1.33095
-1.26771
-1.19962
-1.12681
-1.04947
-0.967875
-0.882369
-0.793364
-0.701332
-0.606803
-0.510359
-0.412632
-0.314292
-0.216042
-0.118605
-0.0227176
0.0708851
0.161478
0.24836
0.330864
0.408372
0.480329
0.546253
0.605744
0.658496
0.704299
0.74304
0.774705
0.799371
0.817201
0.828421
0.833295
0.832095
0.825097
0.812612
0.794975
0.772407
0.745061
0.713257
0.677469
0.638169
0.595957
0.55146
0.50521
0.457739
0.409599
0.361332
0.313468
0.266547
0.221258
0.178338
0.138293
0.101501
0.0683036
0.0390113
0.0138937
-0.00682708
-0.0229375
-0.0342376
-0.0406445
-0.0421161
-0.0385049
-0.0297581
-0.0160874
0.00220337
0.0248148
0.0512572
0.0810633
0.113601
0.148237
0.184467
0.221867
0.259168
0.295385
0.329965
0.36174
0.389962
0.414265
0.434379
0.450172
0.46166
0.469012
0.472538
0.472651
0.469827
0.464561
0.457323
0.448528
0.438532
0.427586
0.415986
0.403307
0.391582
0.0549278
0.0419759
0.025152
0.0200667
0.0269232
0.0419206
0.0618024
0.084204
0.107485
0.13053
0.152587
0.173188
0.192022
0.208858
0.223505
0.235778
0.245486
0.252427
0.256387
0.257153
0.254514
0.24828
0.23829
0.224425
0.206616
0.18485
0.159176
0.129697
0.0965739
0.0600206
0.0202995
-0.0222869
-0.0674101
-0.114732
-0.163922
-0.214665
-0.26667
-0.319676
-0.373443
-0.427759
-0.482435
-0.537303
-0.592213
-0.64703
-0.701634
-0.755912
-0.809759
-0.863074
-0.915761
-0.967726
-1.01887
-1.06912
-1.11836
-1.1665
-1.21347
-1.25916
-1.30347
-1.34631
-1.38759
-1.4272
-1.46504
-1.501
-1.53497
-1.56685
-1.59652
-1.62388
-1.6488
-1.67118
-1.69089
-1.70783
-1.72186
-1.73286
-1.74073
-1.74533
-1.74647
-1.74408
-1.73802
-1.72813
-1.71428
-1.6963
-1.67403
-1.64734
-1.61606
-1.58006
-1.53922
-1.49342
-1.44258
-1.38664
-1.32557
-1.2594
-1.18823
-1.11223
-1.03165
-0.946816
-0.858116
-0.766004
-0.670996
-0.573665
-0.474633
-0.374572
-0.274189
-0.174221
-0.0754253
0.0214323
0.115587
0.206287
0.29281
0.374474
0.450655
0.520802
0.584449
0.641224
0.690857
0.733182
0.768138
0.79576
0.816173
0.829572
0.836203
0.836345
0.830301
0.818421
0.80108
0.77857
0.751083
0.718955
0.682707
0.642856
0.599987
0.554717
0.507619
0.459259
0.410205
0.361018
0.312257
0.264493
0.21837
0.174554
0.133568
0.0958207
0.0616703
0.0314425
0.00543034
-0.0161106
-0.0329967
-0.0450674
-0.0521971
-0.0543057
-0.0512904
-0.0431377
-0.030015
-0.0121926
0.0100224
0.0361872
0.0658337
0.0983659
0.133166
0.169661
0.207255
0.244875
0.281552
0.316584
0.348905
0.37777
0.402744
0.423507
0.439902
0.451936
0.459777
0.46374
0.46425
0.461796
0.45688
0.449973
0.441482
0.431738
0.420951
0.409381
0.396527
0.384561
0.204709
0.186506
0.161421
0.148704
0.149483
0.159931
0.176375
0.196108
0.217101
0.238043
0.258084
0.276685
0.293475
0.308182
0.320573
0.330431
0.337541
0.34168
0.342631
0.340183
0.334145
0.32436
0.310711
0.293131
0.27161
0.246195
0.21699
0.184149
0.147876
0.108412
0.0660347
0.0210434
-0.0262482
-0.0755251
-0.126481
-0.178826
-0.232293
-0.286636
-0.341634
-0.397088
-0.452821
-0.508674
-0.564505
-0.620187
-0.675603
-0.730648
-0.785222
-0.839231
-0.892586
-0.9452
-0.996987
-1.04787
-1.09775
-1.14657
-1.19423
-1.24066
-1.28576
-1.32946
-1.37166
-1.41227
-1.4512
-1.48835
-1.52362
-1.5569
-1.58809
-1.61709
-1.64377
-1.66805
-1.6898
-1.7089
-1.72524
-1.73869
-1.74914
-1.75642
-1.76039
-1.76093
-1.7579
-1.75114
-1.74048
-1.72574
-1.70674
-1.68331
-1.65526
-1.62243
-1.58466
-1.5418
-1.49373
-1.44036
-1.38163
-1.31756
-1.2482
-1.17371
-1.09432
-1.01031
-0.922059
-0.829999
-0.734628
-0.636501
-0.536235
-0.434496
-0.331996
-0.229483
-0.127738
-0.0275594
0.0702445
0.164868
0.255525
0.341465
0.421989
0.496471
0.564368
0.625239
0.678747
0.72467
0.762894
0.793414
0.816319
0.831781
0.840038
0.841378
0.836137
0.824701
0.807493
0.784871
0.757066
0.724432
0.687542
0.646965
0.603292
0.557145
0.509124
0.459821
0.409825
0.359712
0.31006
0.26145
0.214498
0.169824
0.127953
0.0893129
0.0542786
0.0231875
-0.00365201
-0.0259636
-0.0435721
-0.0563425
-0.0641294
-0.0668301
-0.0643651
-0.0567402
-0.0440985
-0.026684
-0.00479907
0.021145
0.0506841
0.0832463
0.11822
0.154982
0.192841
0.230826
0.267983
0.303509
0.336403
0.365926
0.391578
0.412998
0.430003
0.442589
0.450925
0.45533
0.456238
0.454151
0.449579
0.442996
0.434803
0.425313
0.414705
0.403211
0.39029
0.378179
0.400532
0.374293
0.339465
0.316719
0.308538
0.311388
0.321442
0.335618
0.351693
0.368198
0.384171
0.398978
0.412171
0.423409
0.432403
0.438885
0.4426
0.443302
0.440754
0.434743
0.425086
0.411645
0.394329
0.373107
0.348005
0.319106
0.286549
0.250516
0.211233
0.168954
0.123957
0.0765359
0.02699
-0.0243844
-0.0773009
-0.131488
-0.186695
-0.242688
-0.299259
-0.356216
-0.413388
-0.470622
-0.527779
-0.584733
-0.641372
-0.69759
-0.753291
-0.808382
-0.862777
-0.916394
-0.969153
-1.02098
-1.07179
-1.12153
-1.17011
-1.21747
-1.26352
-1.30821
-1.35144
-1.39313
-1.43321
-1.47157
-1.50813
-1.5428
-1.57547
-1.60605
-1.63444
-1.66055
-1.68425
-1.70546
-1.72404
-1.73988
-1.75286
-1.76283
-1.76961
-1.77309
-1.77313
-1.76955
-1.76215
-1.75076
-1.73516
-1.71515
-1.6905
-1.66103
-1.62653
-1.58682
-1.54175
-1.49119
-1.43505
-1.37331
-1.30601
-1.23327
-1.15529
-1.07235
-0.984775
-0.892981
-0.797441
-0.698694
-0.59734
-0.494039
-0.389504
-0.284496
-0.179816
-0.0762991
0.0251995
0.123816
0.218694
0.309008
0.393978
0.472892
0.545129
0.610166
0.667595
0.71713
0.758605
0.791971
0.817288
0.83471
0.844476
0.84689
0.842323
0.831202
0.81399
0.791111
0.762842
0.729554
0.691881
0.650442
0.605855
0.558751
0.509749
0.459468
0.408513
0.357477
0.306944
0.2575
0.20974
0.164252
0.121555
0.0820888
0.0462395
0.0143552
-0.0132459
-0.036275
-0.0545531
-0.0679595
-0.0763456
-0.0795945
-0.0776372
-0.0704878
-0.0582737
-0.0412182
-0.0196137
0.0061507
0.0356181
0.0682334
0.103386
0.140417
0.178583
0.216965
0.254613
0.290656
0.324146
0.354336
0.380666
0.402744
0.420362
0.433507
0.442344
0.4472
0.448518
0.446807
0.442587
0.436336
0.428448
0.419224
0.408822
0.397451
0.384559
0.372382
0.633703
0.600468
0.556956
0.52419
0.505796
0.498932
0.500048
0.506067
0.514732
0.524486
0.534272
0.543366
0.55124
0.557479
0.561729
0.563669
0.562999
0.559439
0.552729
0.542645
0.528998
0.511653
0.49053
0.465607
0.436926
0.404585
0.368732
0.329561
0.287299
0.242201
0.19454
0.144596
0.0926563
0.0390004
-0.0161006
-0.0723895
-0.129626
-0.187588
-0.246071
-0.304889
-0.363874
-0.422873
-0.481748
-0.540373
-0.598632
-0.656419
-0.713636
-0.770189
-0.825992
-0.880962
-0.935021
-0.988097
-1.04012
-1.09103
-1.14075
-1.18923
-1.2364
-1.28221
-1.32657
-1.36942
-1.41068
-1.45027
-1.48812
-1.52413
-1.55822
-1.59032
-1.62032
-1.64815
-1.67371
-1.6969
-1.71763
-1.73577
-1.7512
-1.76379
-1.77336
-1.77975
-1.78283
-1.78244
-1.77838
-1.77041
-1.75832
-1.74185
-1.72078
-1.69485
-1.66383
-1.62751
-1.58567
-1.53817
-1.48488
-1.42574
-1.36078
-1.29008
-1.21382
-1.13222
-1.04561
-0.954364
-0.85892
-0.759794
-0.657569
-0.552893
-0.446476
-0.339088
-0.231554
-0.124742
-0.0195604
0.083066
0.182208
0.276955
0.366439
0.44986
0.526501
0.595756
0.657138
0.710289
0.754991
0.791148
0.818794
0.838079
0.849248
0.852621
0.848598
0.837656
0.820311
0.797054
0.768206
0.734159
0.6956
0.653204
0.607624
0.559509
0.509495
0.458225
0.406319
0.354379
0.30299
0.252738
0.204206
0.157954
0.114494
0.0742699
0.037676
0.00506791
-0.0232292
-0.0469202
-0.065813
-0.079796
-0.088728
-0.092482
-0.090992
-0.0842742
-0.0724442
-0.0557081
-0.0343472
-0.00873298
0.020686
0.0533674
0.0886989
0.125999
0.164497
0.203291
0.241423
0.278001
0.312104
0.342955
0.369956
0.392684
0.410911
0.424613
0.433957
0.439274
0.441015
0.439698
0.435849
0.429946
0.422381
0.413445
0.40328
0.39208
0.379301
0.367123
0.901485
0.863024
0.812582
0.770882
0.742075
0.724351
0.714793
0.710641
0.709775
0.710656
0.712199
0.713628
0.714358
0.713915
0.711891
0.707917
0.701651
0.692779
0.681017
0.666119
0.647882
0.62616
0.600864
0.571966
0.539501
0.503559
0.464282
0.421851
0.376485
0.328424
0.277927
0.22526
0.170692
0.114489
0.0569082
-0.00180514
-0.0614189
-0.121717
-0.182498
-0.243578
-0.304788
-0.365974
-0.426994
-0.487717
-0.548025
-0.607806
-0.666956
-0.725377
-0.782979
-0.839675
-0.895387
-0.950042
-1.00357
-1.05592
-1.10702
-1.15683
-1.20529
-1.25235
-1.29795
-1.34202
-1.3845
-1.42533
-1.46443
-1.50172
-1.53715
-1.57064
-1.60211
-1.63151
-1.65875
-1.68375
-1.70644
-1.72669
-1.7444
-1.75946
-1.77165
-1.78085
-1.78688
-1.78963
-1.78884
-1.7843
-1.77573
-1.76287
-1.74545
-1.72318
-1.69579
-1.66301
-1.62461
-1.58038
-1.53017
-1.4739
-1.41154
-1.34318
-1.26893
-1.18901
-1.10369
-1.0133
-0.918269
-0.819067
-0.716254
-0.610461
-0.502391
-0.392821
-0.282594
-0.172614
-0.0638382
0.0427424
0.146121
0.245301
0.339318
0.427272
0.508348
0.581845
0.647186
0.703942
0.75183
0.790717
0.820614
0.841662
0.854094
0.858275
0.854657
0.843763
0.826167
0.802436
0.772929
0.738065
0.698568
0.655167
0.608556
0.559401
0.508368
0.456116
0.403286
0.350475
0.298273
0.247263
0.19801
0.151055
0.106899
0.065989
0.0287224
-0.00453951
-0.0334665
-0.0577607
-0.0772121
-0.0917149
-0.101142
-0.105359
-0.104297
-0.0979731
-0.0864908
-0.0700422
-0.0488969
-0.0234124
0.00597227
0.0387249
0.0742328
0.1118
0.150631
0.189829
0.228446
0.265572
0.300283
0.331782
0.359437
0.382796
0.401618
0.415868
0.425717
0.4315
0.433678
0.432776
0.429321
0.423792
0.416576
0.407954
0.398061
0.387077
0.374483
0.362361
1.20348
1.16107
1.10471
1.05406
1.01397
0.983919
0.961909
0.945664
0.933309
0.923401
0.914863
0.906893
0.898859
0.890236
0.880566
0.869432
0.856452
0.841274
0.823585
0.803114
0.779635
0.752982
0.723045
0.689777
0.65319
0.613352
0.570382
0.524438
0.475716
0.424433
0.370828
0.315147
0.257641
0.198559
0.138147
0.0766402
0.0142649
-0.0487664
-0.112254
-0.176013
-0.239872
-0.303671
-0.367265
-0.430517
-0.493301
-0.555499
-0.616998
-0.677696
-0.737493
-0.796298
-0.854026
-0.910603
-0.965962
-1.02004
-1.0728
-1.12418
-1.17414
-1.22264
-1.26963
-1.31505
-1.35885
-1.40096
-1.44133
-1.4799
-1.51661
-1.55141
-1.58425
-1.61507
-1.64383
-1.67047
-1.69492
-1.71708
-1.73687
-1.75414
-1.76876
-1.78054
-1.78931
-1.79498
-1.79729
-1.79599
-1.79079
-1.7814
-1.76752
-1.74881
-1.72497
-1.69569
-1.66069
-1.61972
-1.57262
-1.51925
-1.45958
-1.39363
-1.32151
-1.24339
-1.1595
-1.07015
-0.97569
-0.876585
-0.773357
-0.666615
-0.557051
-0.445443
-0.33265
-0.219608
-0.107323
0.00315018
0.110727
0.214319
0.312862
0.405349
0.49086
0.56859
0.637868
0.698181
0.749197
0.79073
0.822732
0.845349
0.858863
0.863669
0.860281
0.849295
0.831345
0.807063
0.776849
0.741142
0.700693
0.656278
0.608629
0.558446
0.506417
0.453218
0.3995
0.345859
0.292893
0.241181
0.191268
0.143678
0.0989034
0.0573852
0.0195211
-0.0143234
-0.0438135
-0.0686498
-0.0886031
-0.10357
-0.113442
-0.118078
-0.117407
-0.11144
-0.100273
-0.0840839
-0.0631319
-0.037762
-0.00840261
0.0244227
0.0600981
0.0979136
0.137066
0.176664