/*--------------------------------*- C++ -*----------------------------------*\
  =========                 |
  \\      /  F ield         | OpenFOAM: The Open Source CFD Toolbox
   \\    /   O peration     | Website:  https://openfoam.org
    \\  /    A nd           | Version:  9
     \\/     M anipulation  |
\*---------------------------------------------------------------------------*/
FoamFile
{
    format      ascii;
    class       surfaceScalarField;
    location    "0.17";
    object      phi;
}
// * * * * * * * * * * * * * * * * * * * * * * * * * * * * * * * * * * * * * //

dimensions      [0 3 -1 0 0 0 0];

internalField   nonuniform List<scalar> 
24170
(
3.03946e-07
1.4895e-08
2.66345e-07
3.76002e-08
2.37858e-07
2.84872e-08
2.15494e-07
2.23643e-08
1.99102e-07
1.63919e-08
1.87628e-07
1.14743e-08
1.79121e-07
8.50647e-09
1.72263e-07
6.85813e-09
1.66453e-07
5.81022e-09
1.61479e-07
4.97405e-09
1.57313e-07
4.16563e-09
1.5407e-07
3.24376e-09
1.52046e-07
2.02347e-09
1.51864e-07
1.81548e-10
1.5476e-07
-2.89597e-09
1.63888e-07
-9.12757e-09
1.87057e-07
-2.31692e-08
-6.84425e-08
2.555e-07
3.47333e-07
9.28695e-09
3.39067e-07
4.58658e-08
3.25478e-07
4.20763e-08
3.12293e-07
3.55491e-08
3.00499e-07
2.81861e-08
2.9053e-07
2.14434e-08
2.82331e-07
1.67054e-08
2.75551e-07
1.3638e-08
2.6988e-07
1.1481e-08
2.6515e-07
9.70439e-09
2.61346e-07
7.97009e-09
2.58621e-07
5.96856e-09
2.57363e-07
3.28164e-09
2.58311e-07
-7.66957e-10
2.63104e-07
-7.689e-09
2.74271e-07
-2.02939e-08
3.02516e-07
-5.14147e-08
-1.04482e-07
3.38556e-07
3.65781e-07
9.75727e-09
3.68331e-07
4.33165e-08
3.64471e-07
4.59355e-08
3.58098e-07
4.19222e-08
3.50584e-07
3.57006e-08
3.42975e-07
2.9052e-08
3.35948e-07
2.37325e-08
3.29699e-07
1.98871e-08
3.242e-07
1.69798e-08
3.1939e-07
1.45148e-08
3.15263e-07
1.20973e-08
3.11912e-07
9.31955e-09
3.09572e-07
5.62187e-09
3.08676e-07
1.28644e-10
3.10002e-07
-9.01516e-09
3.14249e-07
-2.45409e-08
3.18912e-07
-5.60775e-08
-1.03987e-07
3.18417e-07
3.92436e-07
9.86018e-09
3.96382e-07
3.93708e-08
3.96385e-07
4.5932e-08
3.93647e-07
4.46607e-08
3.89101e-07
4.02465e-08
3.83614e-07
3.45391e-08
3.77938e-07
2.94078e-08
3.72478e-07
2.53471e-08
3.67379e-07
2.20794e-08
3.62674e-07
1.92192e-08
3.58384e-07
1.63873e-08
3.54556e-07
1.31473e-08
3.51283e-07
8.89549e-09
3.48686e-07
2.72512e-09
3.4674e-07
-7.06866e-09
3.44747e-07
-2.2548e-08
3.38134e-07
-4.9465e-08
-8.62893e-08
3.20437e-07
4.2143e-07
9.1425e-09
4.25401e-07
3.53999e-08
4.27152e-07
4.41816e-08
4.26594e-07
4.52182e-08
4.2419e-07
4.26504e-08
4.20504e-07
3.82254e-08
4.16172e-07
3.37401e-08
4.11635e-07
2.98833e-08
4.07121e-07
2.6594e-08
4.02725e-07
2.36152e-08
3.98487e-07
2.0625e-08
3.94421e-07
1.72132e-08
3.90503e-07
1.28133e-08
3.86608e-07
6.62028e-09
3.82215e-07
-2.67548e-09
3.76012e-07
-1.63454e-08
3.63754e-07
-3.72064e-08
-6.19375e-08
3.39402e-07
4.51971e-07
8.08036e-09
4.55864e-07
3.15069e-08
4.58543e-07
4.15029e-08
4.59396e-07
4.43645e-08
4.58562e-07
4.34845e-08
4.56353e-07
4.04343e-08
4.5325e-07
3.68436e-08
4.49653e-07
3.348e-08
4.45805e-07
3.0442e-08
4.41828e-07
2.75922e-08
4.37767e-07
2.46862e-08
4.33601e-07
2.13792e-08
4.29215e-07
1.71993e-08
4.24308e-07
1.15279e-08
4.18118e-07
3.51373e-09
4.09197e-07
-7.42417e-09
3.94166e-07
-2.2175e-08
-3.63833e-08
3.68612e-07
4.8444e-07
6.91273e-09
4.88225e-07
2.77219e-08
4.91402e-07
3.83255e-08
4.93181e-07
4.25849e-08
4.93496e-07
4.31698e-08
4.92474e-07
4.1456e-08
4.90448e-07
3.88702e-08
4.87743e-07
3.61852e-08
4.84578e-07
3.36062e-08
4.81074e-07
3.10969e-08
4.77263e-07
2.84972e-08
4.73091e-07
2.55509e-08
4.68377e-07
2.19136e-08
4.62719e-07
1.7185e-08
4.55304e-07
1.09294e-08
4.44797e-07
3.08258e-09
4.28749e-07
-6.1265e-09
-1.21596e-08
4.04525e-07
5.19185e-07
5.68622e-09
5.22802e-07
2.41047e-08
5.26212e-07
3.49151e-08
5.28589e-07
4.02077e-08
5.29738e-07
4.20214e-08
5.29655e-07
4.15387e-08
5.28546e-07
3.99798e-08
5.26651e-07
3.80798e-08
5.24148e-07
3.61093e-08
5.21132e-07
3.41129e-08
5.17616e-07
3.20128e-08
5.13517e-07
2.96503e-08
5.08612e-07
2.68186e-08
5.02473e-07
2.33236e-08
4.94346e-07
1.90569e-08
4.83151e-07
1.42771e-08
4.67264e-07
9.7609e-09
9.6666e-09
4.45438e-07
5.56419e-07
4.40114e-09
5.59827e-07
2.0697e-08
5.63303e-07
3.14388e-08
5.66051e-07
3.74596e-08
5.67797e-07
4.02759e-08
5.68447e-07
4.08882e-08
5.68103e-07
4.03237e-08
5.66925e-07
3.92574e-08
5.65039e-07
3.79954e-08
5.62508e-07
3.6644e-08
5.5932e-07
3.52007e-08
5.5537e-07
3.36011e-08
5.50422e-07
3.1766e-08
5.44075e-07
2.96709e-08
5.35705e-07
2.74267e-08
5.24525e-07
2.54577e-08
5.09573e-07
2.4713e-08
2.874e-08
4.90499e-07
5.9631e-07
3.0692e-09
5.99491e-07
1.75159e-08
6.0292e-07
2.80096e-08
6.0587e-07
3.4509e-08
6.08025e-07
3.81216e-08
6.0923e-07
3.96827e-08
6.09506e-07
4.00474e-08
6.08942e-07
3.98216e-08
6.07612e-07
3.93252e-08
6.05546e-07
3.87105e-08
6.02709e-07
3.80379e-08
5.98984e-07
3.73255e-08
5.94152e-07
3.65981e-08
5.87872e-07
3.59514e-08
5.7968e-07
3.5618e-08
5.69067e-07
3.60711e-08
5.55566e-07
3.82142e-08
4.50026e-08
5.39303e-07
6.39045e-07
1.70508e-09
6.41966e-07
1.45951e-08
6.45246e-07
2.473e-08
6.48239e-07
3.15157e-08
6.50615e-07
3.57455e-08
6.52186e-07
3.81118e-08
6.5291e-07
3.9323e-08
6.52817e-07
3.99152e-08
6.51935e-07
4.02072e-08
6.50264e-07
4.03814e-08
6.47755e-07
4.05471e-08
6.44294e-07
4.07858e-08
6.39697e-07
4.11955e-08
6.33708e-07
4.19406e-08
6.26031e-07
4.32947e-08
6.16407e-07
4.5695e-08
6.04729e-07
4.98923e-08
5.82561e-08
5.91476e-07
5.75333e-07
4.55207e-10
5.77687e-07
1.22417e-08
5.80359e-07
2.20579e-08
5.82899e-07
2.89759e-08
5.8503e-07
3.36141e-08
5.86579e-07
3.65623e-08
5.87474e-07
3.84282e-08
5.87698e-07
3.96912e-08
5.87245e-07
4.06606e-08
5.86092e-07
4.1534e-08
5.8419e-07
4.24495e-08
5.81451e-07
4.35242e-08
5.77755e-07
4.48922e-08
5.72957e-07
4.67386e-08
5.66928e-07
4.93233e-08
5.59626e-07
5.29971e-08
5.51175e-07
5.83428e-08
6.75373e-08
5.41894e-07
7.01105e-07
-8.34316e-10
7.03703e-07
9.64413e-09
7.06627e-07
1.91336e-08
7.09505e-07
2.60981e-08
7.12043e-07
3.10756e-08
7.14034e-07
3.45718e-08
7.15366e-07
3.70962e-08
7.15989e-07
3.90676e-08
7.15873e-07
4.07775e-08
7.14977e-07
4.24296e-08
7.13247e-07
4.41797e-08
7.10604e-07
4.61674e-08
7.06953e-07
4.85424e-08
7.02208e-07
5.14841e-08
6.96324e-07
5.52069e-08
6.89366e-07
5.99558e-08
6.81531e-07
6.61779e-08
7.61522e-08
6.72916e-07
8.54408e-07
-2.15797e-09
8.57312e-07
6.74085e-09
8.60568e-07
1.58774e-08
8.63877e-07
2.27887e-08
8.66946e-07
2.80065e-08
8.69536e-07
3.19819e-08
8.71497e-07
3.51358e-08
8.7274e-07
3.78245e-08
8.73204e-07
4.0313e-08
8.72834e-07
4.27994e-08
8.71571e-07
4.54436e-08
8.69348e-07
4.83896e-08
8.66109e-07
5.17814e-08
8.61824e-07
5.57698e-08
8.56523e-07
6.05078e-08
8.50341e-07
6.61371e-08
8.43501e-07
7.30182e-08
8.36285e-08
8.36025e-07
1.04121e-06
-3.44861e-09
1.04438e-06
3.56905e-09
1.04796e-06
1.23003e-08
1.0517e-06
1.90536e-08
1.05531e-06
2.43946e-08
1.05854e-06
2.8749e-08
1.06121e-06
3.24671e-08
1.06319e-06
3.58426e-08
1.0644e-06
3.9105e-08
1.06477e-06
4.24327e-08
1.06424e-06
4.59727e-08
1.06277e-06
4.98532e-08
1.06036e-06
5.41912e-08
1.05704e-06
5.90924e-08
1.05291e-06
6.46423e-08
1.04815e-06
7.08941e-08
1.043e-06
7.81645e-08
8.91121e-08
1.03752e-06
1.26885e-06
-4.6161e-09
1.27218e-06
2.33045e-10
1.27605e-06
8.43295e-09
1.28021e-06
1.48901e-08
1.2844e-06
2.02051e-08
1.28836e-06
2.47963e-08
1.29186e-06
2.89596e-08
1.29478e-06
3.29285e-08
1.29699e-06
3.6887e-08
1.29845e-06
4.09791e-08
1.2991e-06
4.53209e-08
1.29895e-06
5.00069e-08
1.29803e-06
5.51125e-08
1.29643e-06
6.06912e-08
1.2943e-06
6.67659e-08
1.29187e-06
7.3324e-08
1.28937e-06
8.06645e-08
9.1538e-08
1.28695e-06
1.5463e-06
-5.59337e-09
1.54965e-06
-3.11721e-09
1.55379e-06
4.28539e-09
1.55846e-06
1.02207e-08
1.56337e-06
1.52927e-08
1.56826e-06
1.99121e-08
1.57289e-06
2.43263e-08
1.57711e-06
2.87077e-08
1.58082e-06
3.3185e-08
1.58394e-06
3.78544e-08
1.58647e-06
4.27868e-08
1.58845e-06
4.80321e-08
1.58994e-06
5.3619e-08
1.59108e-06
5.9553e-08
1.59204e-06
6.58106e-08
1.59302e-06
7.23402e-08
1.59425e-06
7.94295e-08
8.97512e-08
1.59604e-06
1.88455e-06
-6.37696e-09
1.88776e-06
-6.33141e-09
1.89227e-06
-2.20406e-10
1.89769e-06
4.79388e-09
1.9037e-06
9.28202e-09
1.91e-06
1.36191e-08
1.91633e-06
1.79912e-08
1.92254e-06
2.25011e-08
1.92851e-06
2.72113e-08
1.93421e-06
3.21582e-08
1.93964e-06
3.73601e-08
1.94485e-06
4.28191e-08
1.94995e-06
4.85215e-08
1.95506e-06
5.44373e-08
1.96036e-06
6.05163e-08
1.96601e-06
6.66909e-08
1.97221e-06
7.32263e-08
8.25156e-08
1.97944e-06
2.29719e-06
-7.23645e-09
2.30014e-06
-9.2811e-09
2.30531e-06
-5.38297e-09
2.3121e-06
-1.99813e-09
2.32e-06
1.37622e-09
2.32862e-06
4.99751e-09
2.33767e-06
8.94468e-09
2.34695e-06
1.32233e-08
2.35635e-06
1.78096e-08
2.36584e-06
2.2669e-08
2.37544e-06
2.77622e-08
2.38521e-06
3.30466e-08
2.39526e-06
3.84751e-08
2.4057e-06
4.39953e-08
2.41667e-06
4.95484e-08
2.42829e-06
5.50651e-08
2.44077e-06
6.07522e-08
6.85487e-08
2.45473e-06
1.68166e-06
-7.82108e-09
1.68359e-06
-1.12198e-08
1.68766e-06
-9.45242e-09
1.69324e-06
-7.57716e-09
1.69983e-06
-5.20886e-09
1.70707e-06
-2.24664e-09
1.71474e-06
1.27702e-09
1.72269e-06
5.27492e-09
1.73085e-06
9.64842e-09
1.73921e-06
1.4308e-08
1.74779e-06
1.91771e-08
1.75665e-06
2.41885e-08
1.76585e-06
2.92804e-08
1.77545e-06
3.43946e-08
1.78552e-06
3.94741e-08
1.79613e-06
4.44575e-08
1.80739e-06
4.94953e-08
5.61354e-08
1.8198e-06
1.46379e-06
-8.15372e-09
1.46566e-06
-1.30895e-08
1.46972e-06
-1.35125e-08
1.47522e-06
-1.3077e-08
1.48162e-06
-1.1613e-08
1.48858e-06
-9.20634e-09
1.49588e-06
-6.01575e-09
1.50338e-06
-2.23252e-09
1.51106e-06
1.96678e-09
1.51893e-06
6.44342e-09
1.52702e-06
1.10905e-08
1.53538e-06
1.58249e-08
1.54408e-06
2.05796e-08
1.55318e-06
2.5298e-08
1.56272e-06
2.993e-08
1.57275e-06
3.44248e-08
1.58336e-06
3.88899e-08
4.45635e-08
1.59493e-06
1.27412e-06
-8.25974e-09
1.27607e-06
-1.50401e-08
1.2802e-06
-1.76423e-08
1.28558e-06
-1.84611e-08
1.29167e-06
-1.76976e-08
1.2981e-06
-1.56426e-08
1.30469e-06
-1.26029e-08
1.31136e-06
-8.89621e-09
1.3181e-06
-4.77868e-09
1.32497e-06
-4.23157e-10
1.33202e-06
4.04219e-09
1.33931e-06
8.52658e-09
1.34693e-06
1.29642e-08
1.35492e-06
1.73072e-08
1.36333e-06
2.15176e-08
1.3722e-06
2.5558e-08
1.38159e-06
2.95039e-08
3.43435e-08
1.39181e-06
1.10891e-06
-8.0795e-09
1.11101e-06
-1.71415e-08
1.11521e-06
-2.18392e-08
1.12038e-06
-2.36297e-08
1.12597e-06
-2.32887e-08
1.13164e-06
-2.13117e-08
1.13722e-06
-1.81834e-08
1.14271e-06
-1.43811e-08
1.14817e-06
-1.02405e-08
1.1537e-06
-5.95134e-09
1.15938e-06
-1.63993e-09
1.1653e-06
2.60823e-09
1.17152e-06
6.73567e-09
1.17812e-06
1.07074e-08
1.18514e-06
1.45017e-08
1.1926e-06
1.80966e-08
1.20056e-06
2.15463e-08
2.56395e-08
1.20926e-06
9.6497e-07
-7.52768e-09
9.6726e-07
-1.94314e-08
9.71452e-07
-2.60314e-08
9.76245e-07
-2.84228e-08
9.81117e-07
-2.81605e-08
9.85734e-07
-2.59288e-08
9.90001e-07
-2.24508e-08
9.94014e-07
-1.83938e-08
9.97921e-07
-1.41477e-08
1.00187e-06
-9.90337e-09
1.00599e-06
-5.76115e-09
1.01038e-06
-1.77741e-09
1.0151e-06
2.01259e-09
1.02022e-06
5.58993e-09
1.02577e-06
8.94909e-09
1.03179e-06
1.20838e-08
1.0383e-06
1.50337e-08
1.84369e-08
1.0455e-06
8.39445e-07
-6.43757e-09
8.42012e-07
-2.19982e-08
8.46068e-07
-3.00877e-08
8.5023e-07
-3.2584e-08
8.54049e-07
-3.198e-08
8.5724e-07
-2.91202e-08
8.59847e-07
-2.50578e-08
8.62106e-07
-2.06524e-08
8.64256e-07
-1.62975e-08
8.66492e-07
-1.21397e-08
8.68968e-07
-8.23722e-09
8.71789e-07
-4.59844e-09
8.75018e-07
-1.21621e-09
8.78696e-07
1.91222e-09
8.82848e-07
4.79656e-09
8.87492e-07
7.44054e-09
8.92655e-07
9.86981e-09
1.261e-08
8.98482e-07
7.29557e-07
-4.26591e-09
7.32739e-07
-2.51803e-08
7.36478e-07
-3.38265e-08
7.39586e-07
-3.56921e-08
7.41834e-07
-3.42285e-08
7.43095e-07
-3.03812e-08
7.43646e-07
-2.56085e-08
7.43887e-07
-2.08935e-08
7.44139e-07
-1.65497e-08
7.44623e-07
-1.26231e-08
7.45482e-07
-9.09631e-09
7.46811e-07
-5.92772e-09
7.48654e-07
-3.05926e-09
7.51025e-07
-4.59084e-10
7.53925e-07
1.897e-09
7.57349e-07
4.01606e-09
7.61322e-07
5.89749e-09
7.97443e-09
7.65957e-07
6.32739e-07
1.19652e-12
6.37191e-07
-2.96323e-08
6.40112e-07
-3.67475e-08
6.41422e-07
-3.70016e-08
6.41294e-07
-3.4101e-08
6.39957e-07
-2.90441e-08
6.38018e-07
-2.36689e-08
6.36029e-07
-1.89046e-08
6.34335e-07
-1.48561e-08
6.33127e-07
-1.14149e-08
6.325e-07
-8.46889e-09
6.32498e-07
-5.92615e-09
6.3313e-07
-3.69067e-09
6.34378e-07
-1.70741e-09
6.3621e-07
6.52481e-11
6.38592e-07
1.63336e-09
6.41541e-07
2.94881e-09
4.33292e-09
6.45183e-07
5.49092e-07
5.45515e-09
5.54235e-07
-3.47751e-08
5.54264e-07
-3.67765e-08
5.52056e-07
-3.47932e-08
5.48172e-07
-3.02173e-08
5.43342e-07
-2.4214e-08
5.38469e-07
-1.87959e-08
5.34125e-07
-1.45605e-08
5.30551e-07
-1.12823e-08
5.27811e-07
-8.67498e-09
5.25893e-07
-6.55037e-09
5.24764e-07
-4.7976e-09
5.24376e-07
-3.3028e-09
5.24684e-07
-2.01506e-09
5.25615e-07
-8.66192e-10
5.27107e-07
1.41715e-10
5.2915e-07
9.05438e-10
1.53256e-09
5.31951e-07
4.87601e-07
6.14902e-10
4.83952e-07
-3.11259e-08
4.74541e-07
-2.73656e-08
4.64159e-07
-2.44114e-08
4.53797e-07
-1.98547e-08
4.44242e-07
-1.46591e-08
4.36094e-07
-1.0648e-08
4.29472e-07
-7.93921e-09
4.24249e-07
-6.059e-09
4.20236e-07
-4.66231e-09
4.17262e-07
-3.57615e-09
4.15186e-07
-2.72156e-09
4.13925e-07
-2.04111e-09
4.13394e-07
-1.48407e-09
4.13488e-07
-9.61092e-10
4.14123e-07
-4.92547e-10
4.15226e-07
-1.97484e-10
-2.81641e-10
4.1704e-07
4.20883e-07
3.89757e-07
3.62391e-07
3.3798e-07
3.18125e-07
3.03466e-07
2.92818e-07
2.84879e-07
2.7882e-07
2.74157e-07
2.70581e-07
2.6786e-07
2.65818e-07
2.64334e-07
2.63373e-07
2.62881e-07
2.62683e-07
2.62402e-07
2.58911e-08
-2.58911e-08
7.07724e-08
-4.48813e-08
1.21611e-07
-5.08385e-08
1.73257e-07
-5.16462e-08
2.22773e-07
-4.95163e-08
2.68349e-07
-4.55759e-08
3.08921e-07
-4.05713e-08
3.43885e-07
-3.49642e-08
3.72922e-07
-2.90371e-08
3.9588e-07
-2.2958e-08
4.12698e-07
-1.6818e-08
4.23351e-07
-1.06529e-08
4.2785e-07
-4.49909e-09
4.2627e-07
1.58023e-09
4.19059e-07
7.21068e-09
4.0703e-07
1.20293e-08
3.91156e-07
1.58739e-08
3.72417e-07
1.87388e-08
3.52422e-07
1.99947e-08
3.31293e-07
2.11289e-08
3.06414e-07
2.48795e-08
2.79655e-07
2.67589e-08
2.53058e-07
2.65971e-08
2.26584e-07
2.64741e-08
1.98626e-07
2.79576e-08
1.6714e-07
3.1486e-08
1.32795e-07
3.43455e-08
9.44856e-08
3.83089e-08
4.96185e-08
4.48671e-08
9.82927e-11
4.95202e-08
-5.34486e-08
5.35469e-08
-1.12955e-07
5.95066e-08
-1.804e-07
6.74451e-08
-2.58284e-07
7.7884e-08
-3.42059e-07
8.37746e-08
-4.30061e-07
8.80017e-08
-5.25439e-07
9.5378e-08
-6.26429e-07
1.00991e-07
-7.31372e-07
1.04942e-07
-8.38782e-07
1.07411e-07
-9.4729e-07
1.08507e-07
-1.05565e-06
1.08355e-07
-1.16274e-06
1.07098e-07
-1.26764e-06
1.04896e-07
-1.36956e-06
1.01921e-07
-1.4679e-06
9.83401e-08
-1.56221e-06
9.43138e-08
-1.6522e-06
8.99849e-08
-1.73767e-06
8.54758e-08
-1.81856e-06
8.08874e-08
-1.89486e-06
7.62981e-08
-1.96663e-06
7.17666e-08
-2.03396e-06
6.73332e-08
-2.09698e-06
6.30232e-08
-2.15583e-06
5.88496e-08
-2.21065e-06
5.48157e-08
-2.26157e-06
5.09177e-08
-2.30871e-06
4.71462e-08
-2.3522e-06
4.34886e-08
-2.39213e-06
3.99293e-08
-2.42858e-06
3.64516e-08
-2.46162e-06
3.30375e-08
-2.49129e-06
2.96688e-08
-2.51761e-06
2.63267e-08
-2.54061e-06
2.29931e-08
-2.56026e-06
1.96509e-08
-2.57654e-06
1.62844e-08
-2.58942e-06
1.28795e-08
-2.59885e-06
9.4232e-09
-2.60476e-06
5.91178e-09
-2.60716e-06
2.39934e-09
-2.60613e-06
-1.02993e-09
-2.60195e-06
-4.17723e-09
-2.5949e-06
-7.04784e-09
-2.58513e-06
-9.77146e-09
-2.5727e-06
-1.24287e-08
-2.55763e-06
-1.50679e-08
-2.53993e-06
-1.77069e-08
-2.51957e-06
-2.03529e-08
-2.49657e-06
-2.30078e-08
-2.4709e-06
-2.56712e-08
-2.44255e-06
-2.83412e-08
-2.41154e-06
-3.10146e-08
-2.37785e-06
-3.36874e-08
-2.3415e-06
-3.63545e-08
-2.30249e-06
-3.90099e-08
-2.26084e-06
-4.1646e-08
-2.21659e-06
-4.42542e-08
-2.16976e-06
-4.68242e-08
-2.12042e-06
-4.93438e-08
-2.06862e-06
-5.1799e-08
-2.01445e-06
-5.4173e-08
-1.958e-06
-5.64462e-08
-1.8994e-06
-5.8596e-08
-1.83881e-06
-6.05973e-08
-1.77639e-06
-6.24219e-08
-1.71235e-06
-6.40395e-08
-1.64693e-06
-6.54173e-08
-1.58041e-06
-6.6521e-08
-1.51309e-06
-6.7315e-08
-1.44533e-06
-6.77634e-08
-1.3775e-06
-6.78311e-08
-1.31001e-06
-6.74852e-08
-1.24332e-06
-6.66965e-08
-1.17788e-06
-6.54415e-08
-1.11417e-06
-6.37041e-08
-1.05269e-06
-6.14779e-08
-9.93925e-07
-5.87677e-08
-9.38335e-07
-5.55908e-08
-8.86357e-07
-5.19774e-08
-8.38384e-07
-4.7973e-08
-7.94747e-07
-4.36372e-08
-7.55713e-07
-3.90336e-08
-7.21473e-07
-3.42401e-08
-6.92044e-07
-2.94293e-08
-6.67136e-07
-2.49081e-08
-6.46171e-07
-2.09652e-08
-6.28921e-07
-1.72496e-08
-6.16466e-07
-1.24553e-08
-6.03398e-07
-1.30676e-08
-5.95621e-07
-7.77716e-09
-5.95156e-07
-4.65389e-10
-5.98021e-07
2.86501e-09
-6.04372e-07
6.35148e-09
-6.05178e-07
8.05995e-10
-6.12592e-07
7.41375e-09
-6.21648e-07
9.0564e-09
-6.29913e-07
8.26522e-09
-6.45902e-07
1.59889e-08
-6.61534e-07
1.56321e-08
-6.74782e-07
1.32471e-08
-6.89039e-07
1.42574e-08
-7.03823e-07
1.47841e-08
-7.20276e-07
1.64529e-08
-7.37822e-07
1.75462e-08
-7.46776e-07
8.95421e-09
-7.57653e-07
1.08771e-08
-7.72649e-07
1.49959e-08
-7.8318e-07
1.05306e-08
-7.90728e-07
7.54857e-09
-7.96424e-07
5.69519e-09
-7.99675e-07
3.25112e-09
-8.03679e-07
4.00448e-09
-7.98369e-07
-5.31067e-09
-7.87468e-07
-1.09006e-08
-7.80124e-07
-7.34396e-09
-7.731e-07
-7.02446e-09
-7.61145e-07
-1.19541e-08
-7.34899e-07
-2.6247e-08
-7.09271e-07
-2.56271e-08
-6.86907e-07
-2.23648e-08
-6.55837e-07
-3.10701e-08
-6.19967e-07
-3.58699e-08
-5.82158e-07
-3.78082e-08
-5.39665e-07
-4.24935e-08
-4.94311e-07
-4.53543e-08
-4.47138e-07
-4.71728e-08
-3.95238e-07
-5.18999e-08
-3.3701e-07
-5.82281e-08
-2.80862e-07
-5.61482e-08
-2.23036e-07
-5.78253e-08
-1.61185e-07
-6.18509e-08
-1.00164e-07
-6.1021e-08
-3.86777e-08
-6.14865e-08
2.28995e-08
-6.15772e-08
8.41081e-08
-6.12086e-08
1.44413e-07
-6.03044e-08
2.03333e-07
-5.89202e-08
2.60496e-07
-5.71632e-08
3.15627e-07
-5.51308e-08
3.68548e-07
-5.29209e-08
4.19164e-07
-5.06166e-08
4.67433e-07
-4.82692e-08
5.13315e-07
-4.58812e-08
5.56692e-07
-4.33772e-08
5.97261e-07
-4.0569e-08
6.34201e-07
-3.69406e-08
6.65786e-07
-3.1585e-08
6.85072e-07
-1.9286e-08
6.03591e-09
6.79036e-07
4.62987e-08
-7.21898e-08
1.0059e-07
-9.91724e-08
1.49702e-07
-9.99511e-08
1.92529e-07
-9.44727e-08
2.29603e-07
-8.65904e-08
2.61437e-07
-7.74101e-08
2.88345e-07
-6.74794e-08
3.10512e-07
-5.71306e-08
3.2805e-07
-4.65749e-08
3.41047e-07
-3.59552e-08
3.49605e-07
-2.53767e-08
3.53879e-07
-1.49262e-08
3.54072e-07
-4.69217e-09
3.50446e-07
5.20568e-09
3.43017e-07
1.464e-08
3.31646e-07
2.34e-08
3.16178e-07
3.13428e-08
2.96453e-07
3.84629e-08
2.71593e-07
4.48548e-08
2.41817e-07
5.09054e-08
2.10052e-07
5.66442e-08
1.75243e-07
6.15683e-08
1.35393e-07
6.64473e-08
8.92639e-08
7.26029e-08
3.72128e-08
8.00086e-08
-1.90763e-08
8.77752e-08
-8.22022e-08
9.74713e-08
-1.5253e-07
1.08637e-07
-2.29384e-07
1.21721e-07
-3.14805e-07
1.34941e-07
-4.07686e-07
1.46428e-07
-5.07135e-07
1.58955e-07
-6.11883e-07
1.72193e-07
-7.19115e-07
1.85116e-07
-8.30668e-07
1.95328e-07
-9.45164e-07
2.02497e-07
-1.05799e-06
2.08205e-07
-1.16875e-06
2.11752e-07
-1.2767e-06
2.12887e-07
-1.38102e-06
2.11735e-07
-1.48105e-06
2.08542e-07
-1.57631e-06
2.03612e-07
-1.66649e-06
1.97274e-07
-1.75145e-06
1.89859e-07
-1.8312e-06
1.81676e-07
-1.90587e-06
1.73e-07
-1.97562e-06
1.64067e-07
-2.0407e-06
1.55063e-07
-2.10135e-06
1.46133e-07
-2.15785e-06
1.37381e-07
-2.21043e-06
1.28877e-07
-2.25932e-06
1.20663e-07
-2.30474e-06
1.12756e-07
-2.34688e-06
1.05158e-07
-2.38589e-06
9.78577e-08
-2.42191e-06
9.08363e-08
-2.45506e-06
8.40687e-08
-2.48544e-06
7.75273e-08
-2.51313e-06
7.11835e-08
-2.53821e-06
6.50088e-08
-2.56074e-06
5.89761e-08
-2.58076e-06
5.306e-08
-2.59833e-06
4.72375e-08
-2.61349e-06
4.14884e-08
-2.62629e-06
3.57962e-08
-2.63679e-06
3.01483e-08
-2.64504e-06
2.45367e-08
-2.65112e-06
1.896e-08
-2.65513e-06
1.34251e-08
-2.65717e-06
7.95236e-09
-2.65734e-06
2.56792e-09
-2.65564e-06
-2.72404e-09
-2.65187e-06
-7.95231e-09
-2.64574e-06
-1.31773e-08
-2.63709e-06
-1.84228e-08
-2.62583e-06
-2.36853e-08
-2.61193e-06
-2.89702e-08
-2.59535e-06
-3.42823e-08
-2.57608e-06
-3.96236e-08
-2.55409e-06
-4.49931e-08
-2.52938e-06
-5.03877e-08
-2.50192e-06
-5.58024e-08
-2.4717e-06
-6.12302e-08
-2.43873e-06
-6.66625e-08
-2.40299e-06
-7.20885e-08
-2.36451e-06
-7.74955e-08
-2.32328e-06
-8.28682e-08
-2.27935e-06
-8.81887e-08
-2.23274e-06
-9.34358e-08
-2.1835e-06
-9.85852e-08
-2.13169e-06
-1.03608e-07
-2.07739e-06
-1.08471e-07
-2.0207e-06
-1.13137e-07
-1.96173e-06
-1.17561e-07
-1.90063e-06
-1.21696e-07
-1.83757e-06
-1.25488e-07
-1.77273e-06
-1.2888e-07
-1.70634e-06
-1.31809e-07
-1.63865e-06
-1.3421e-07
-1.56995e-06
-1.36016e-07
-1.50055e-06
-1.37158e-07
-1.43081e-06
-1.37569e-07
-1.36111e-06
-1.37186e-07
-1.29186e-06
-1.35949e-07
-1.22349e-06
-1.33811e-07
-1.15646e-06
-1.30736e-07
-1.09124e-06
-1.26703e-07
-1.02829e-06
-1.21711e-07
-9.68101e-07
-1.15781e-07
-9.11119e-07
-1.0896e-07
-8.57772e-07
-1.01319e-07
-8.0845e-07
-9.29595e-08
-7.63475e-07
-8.40081e-08
-7.23089e-07
-7.46266e-08
-6.87466e-07
-6.50518e-08
-6.56761e-07
-5.5613e-08
-6.31138e-07
-4.65886e-08
-6.10643e-07
-3.77447e-08
-5.94515e-07
-2.85833e-08
-5.86362e-07
-2.12207e-08
-5.81424e-07
-1.27152e-08
-5.78024e-07
-3.86466e-09
-5.78793e-07
3.63388e-09
-5.8177e-07
9.32815e-09
-5.92496e-07
1.15324e-08
-6.02045e-07
1.6962e-08
-6.14309e-07
2.1321e-08
-6.29749e-07
2.37051e-08
-6.42879e-07
2.91186e-08
-6.58046e-07
3.07992e-08
-6.7525e-07
3.0451e-08
-6.91861e-07
3.08683e-08
-7.08125e-07
3.1048e-08
-7.23251e-07
3.15791e-08
-7.36615e-07
3.09103e-08
-7.53586e-07
2.59249e-08
-7.66864e-07
2.41558e-08
-7.76173e-07
2.43046e-08
-7.85642e-07
1.99995e-08
-7.93497e-07
1.5404e-08
-7.98951e-07
1.11484e-08
-8.02219e-07
6.51947e-09
-8.00608e-07
2.39385e-09
-7.99247e-07
-6.67204e-09
-7.9603e-07
-1.41178e-08
-7.86757e-07
-1.66168e-08
-7.72915e-07
-2.08664e-08
-7.55119e-07
-2.97501e-08
-7.39028e-07
-4.23385e-08
-7.16803e-07
-4.78516e-08
-6.87434e-07
-5.17336e-08
-6.56697e-07
-6.18073e-08
-6.2264e-07
-6.99267e-08
-5.83708e-07
-7.67405e-08
-5.41926e-07
-8.42756e-08
-4.96228e-07
-9.10524e-08
-4.46145e-07
-9.72552e-08
-3.92309e-07
-1.05737e-07
-3.38672e-07
-1.11865e-07
-2.80423e-07
-1.14397e-07
-2.19483e-07
-1.18765e-07
-1.59305e-07
-1.22029e-07
-9.76893e-08
-1.22636e-07
-3.54177e-08
-1.23758e-07
2.70864e-08
-1.24081e-07
8.9281e-08
-1.23403e-07
1.50687e-07
-1.21711e-07
2.10876e-07
-1.19108e-07
2.69471e-07
-1.15758e-07
3.26185e-07
-1.11845e-07
3.80822e-07
-1.07558e-07
4.33265e-07
-1.03059e-07
4.83451e-07
-9.84548e-08
5.31324e-07
-9.37546e-08
5.7677e-07
-8.88237e-08
6.19513e-07
-8.33114e-08
6.58934e-07
-7.63615e-08
6.9383e-07
-6.64818e-08
7.22606e-07
-4.8061e-08
-1.50507e-08
7.43692e-07
4.82118e-08
-1.20402e-07
9.32772e-08
-1.44238e-07
1.30694e-07
-1.37368e-07
1.61675e-07
-1.25454e-07
1.87266e-07
-1.12181e-07
2.08172e-07
-9.83162e-08
2.24832e-07
-8.41392e-08
2.37505e-07
-6.98041e-08
2.46342e-07
-5.54115e-08
2.51426e-07
-4.1039e-08
2.52803e-07
-2.67546e-08
2.50499e-07
-1.26222e-08
2.44538e-07
1.26885e-09
2.34897e-07
1.48473e-08
2.21509e-07
2.80281e-08
2.04188e-07
4.07204e-08
1.82647e-07
5.28839e-08
1.56558e-07
6.45524e-08
1.25578e-07
7.58339e-08
8.96582e-08
8.68257e-08
4.88521e-08
9.74503e-08
2.44267e-09
1.07978e-07
-5.02457e-08
1.19136e-07
-1.09169e-07
1.31526e-07
-1.74464e-07
1.45303e-07
-2.46686e-07
1.59998e-07
-3.25151e-07
1.75936e-07
-4.09432e-07
1.92917e-07
-4.98246e-07
2.10536e-07
-5.91186e-07
2.27881e-07
-6.88783e-07
2.44025e-07
-7.88988e-07
2.5916e-07
-8.89613e-07
2.72818e-07
-9.88696e-07
2.84199e-07
-1.0858e-06
2.92432e-07
-1.18066e-06
2.97357e-07
-1.2718e-06
2.99349e-07
-1.3586e-06
2.9855e-07
-1.4409e-06
2.95182e-07
-1.51872e-06
2.89558e-07
-1.59223e-06
2.82047e-07
-1.66165e-06
2.73033e-07
-1.72726e-06
2.62892e-07
-1.78937e-06
2.51967e-07
-1.84826e-06
2.40559e-07
-1.90417e-06
2.28917e-07
-1.95735e-06
2.17241e-07
-2.00797e-06
2.05681e-07
-2.05618e-06
1.94347e-07
-2.10211e-06
1.83311e-07
-2.14585e-06
1.72615e-07
-2.18746e-06
1.62277e-07
-2.227e-06
1.52296e-07
-2.26451e-06
1.42661e-07
-2.3e-06
1.33349e-07
-2.33349e-06
1.24332e-07
-2.365e-06
1.15579e-07
-2.39453e-06
1.07058e-07
-2.42209e-06
9.87354e-08
-2.44766e-06
9.05813e-08
-2.47125e-06
8.25663e-08
-2.49285e-06
7.46639e-08
-2.51247e-06
6.68503e-08
-2.53008e-06
5.91051e-08
-2.5457e-06
5.14115e-08
-2.55931e-06
4.37561e-08
-2.5709e-06
3.61292e-08
-2.58046e-06
2.85241e-08
-2.58797e-06
2.09374e-08
-2.59339e-06
1.33655e-08
-2.59662e-06
5.79781e-09
-2.59756e-06
-1.77951e-09
-2.59612e-06
-9.39244e-09
-2.59224e-06
-1.70647e-08
-2.58585e-06
-2.48051e-08
-2.57692e-06
-3.26146e-08
-2.5654e-06
-4.04905e-08
-2.55125e-06
-4.84313e-08
-2.53444e-06
-5.64342e-08
-2.51494e-06
-6.44946e-08
-2.49272e-06
-7.2606e-08
-2.46777e-06
-8.07596e-08
-2.44005e-06
-8.89443e-08
-2.40957e-06
-9.71463e-08
-2.37631e-06
-1.05349e-07
-2.34027e-06
-1.13533e-07
-2.30146e-06
-1.21675e-07
-2.25991e-06
-1.29747e-07
-2.21563e-06
-1.37717e-07
-2.16866e-06
-1.45549e-07
-2.11907e-06
-1.532e-07
-2.06692e-06
-1.6062e-07
-2.0123e-06
-1.67753e-07
-1.95533e-06
-1.74537e-07
-1.89612e-06
-1.80901e-07
-1.83484e-06
-1.86769e-07
-1.77167e-06
-1.92057e-07
-1.7068e-06
-1.96676e-07
-1.64048e-06
-2.00532e-07
-1.57296e-06
-2.03528e-07
-1.50456e-06
-2.05565e-07
-1.43558e-06
-2.06545e-07
-1.36639e-06
-2.06376e-07
-1.29737e-06
-2.04972e-07
-1.22892e-06
-2.02258e-07
-1.16148e-06
-1.98177e-07
-1.09549e-06
-1.92694e-07
-1.03141e-06
-1.85795e-07
-9.69685e-07
-1.77502e-07
-9.10781e-07
-1.67864e-07
-8.55127e-07
-1.56973e-07
-8.03128e-07
-1.44958e-07
-7.55148e-07
-1.31988e-07
-7.11493e-07
-1.18282e-07
-6.72431e-07
-1.04113e-07
-6.38245e-07
-8.97987e-08
-6.09247e-07
-7.55871e-08
-5.85527e-07
-6.14645e-08
-5.66783e-07
-4.73273e-08
-5.54257e-07
-3.37463e-08
-5.46231e-07
-2.0742e-08
-5.41425e-07
-8.6701e-09
-5.39997e-07
2.20579e-09
-5.42487e-07
1.18183e-08
-5.50678e-07
1.97236e-08
-5.60696e-07
2.69799e-08
-5.72893e-07
3.35182e-08
-5.87749e-07
3.85608e-08
-6.02003e-07
4.33722e-08
-6.17649e-07
4.64451e-08
-6.34984e-07
4.77867e-08
-6.52586e-07
4.84698e-08
-6.70058e-07
4.852e-08
-6.86382e-07
4.79029e-08
-7.0176e-07
4.62886e-08
-7.18667e-07
4.2832e-08
-7.33701e-07
3.91895e-08
-7.4513e-07
3.57336e-08
-7.55467e-07
3.03369e-08
-7.64168e-07
2.4105e-08
-7.70495e-07
1.74747e-08
-7.7423e-07
1.0255e-08
-7.74205e-07
2.36882e-09
-7.7343e-07
-7.44685e-09
-7.70631e-07
-1.69169e-08
-7.62248e-07
-2.50003e-08
-7.48961e-07
-3.41533e-08
-7.32824e-07
-4.58873e-08
-7.16478e-07
-5.86838e-08
-6.95402e-07
-6.89279e-08
-6.68037e-07
-7.90986e-08
-6.38219e-07
-9.16258e-08
-6.0508e-07
-1.03065e-07
-5.67576e-07
-1.14245e-07
-5.26624e-07
-1.25227e-07
-4.81698e-07
-1.35979e-07
-4.32622e-07
-1.46331e-07
-3.81045e-07
-1.57314e-07
-3.28062e-07
-1.64847e-07
-2.7114e-07
-1.71319e-07
-2.11884e-07
-1.78021e-07
-1.52471e-07
-1.81442e-07
-9.16853e-08
-1.83422e-07
-3.01481e-08
-1.85295e-07
3.16395e-08
-1.85869e-07
9.31588e-08
-1.84923e-07
1.5393e-07
-1.82482e-07
2.13521e-07
-1.78699e-07
2.71561e-07
-1.73799e-07
3.27762e-07
-1.68046e-07
3.81921e-07
-1.61717e-07
4.33916e-07
-1.55054e-07
4.8368e-07
-1.48219e-07
5.31164e-07
-1.41239e-07
5.76281e-07
-1.33941e-07
6.18828e-07
-1.25859e-07
6.58423e-07
-1.15956e-07
6.94392e-07
-1.02451e-07
7.2672e-07
-8.03898e-08
-4.50857e-08
7.56755e-07
3.91203e-08
-1.59522e-07
6.85846e-08
-1.73702e-07
9.19023e-08
-1.60686e-07
1.10703e-07
-1.44254e-07
1.25668e-07
-1.27146e-07
1.37149e-07
-1.09798e-07
1.45331e-07
-9.23214e-08
1.50303e-07
-7.47753e-08
1.52089e-07
-5.71982e-08
1.50671e-07
-3.96208e-08
1.4598e-07
-2.20636e-08
1.3794e-07
-4.58198e-09
1.26433e-07
1.27755e-08
1.11308e-07
2.99725e-08
9.23791e-08
4.69572e-08
6.93979e-08
6.37016e-08
4.20788e-08
8.0203e-08
1.01236e-08
9.65075e-08
-2.67506e-08
1.12708e-07
-6.88173e-08
1.28892e-07
-1.1652e-07
1.45153e-07
-1.7028e-07
1.61738e-07
-2.30142e-07
1.78997e-07
-2.95814e-07
1.97198e-07
-3.66865e-07
2.16355e-07
-4.43068e-07
2.362e-07
-5.23607e-07
2.56475e-07
-6.07451e-07
2.76761e-07
-6.93361e-07
2.96446e-07
-7.80272e-07
3.14791e-07
-8.67399e-07
3.31152e-07
-9.53387e-07
3.45148e-07
-1.03693e-06
3.56361e-07
-1.11709e-06
3.64356e-07
-1.19357e-06
3.68912e-07
-1.26638e-06
3.70169e-07
-1.33546e-06
3.68435e-07
-1.40095e-06
3.64037e-07
-1.46311e-06
3.57339e-07
-1.52228e-06
3.48725e-07
-1.57881e-06
3.3858e-07
-1.63304e-06
3.27269e-07
-1.68527e-06
3.15122e-07
-1.73573e-06
3.02428e-07
-1.7846e-06
2.89429e-07
-1.83201e-06
2.76322e-07
-1.87803e-06
2.6326e-07
-1.9227e-06
2.50356e-07
-1.96605e-06
2.3769e-07
-2.00805e-06
2.25313e-07
-2.04868e-06
2.13252e-07
-2.08792e-06
2.01516e-07
-2.12573e-06
1.90101e-07
-2.16206e-06
1.78991e-07
-2.19687e-06
1.68164e-07
-2.23013e-06
1.57591e-07
-2.2618e-06
1.47243e-07
-2.29183e-06
1.37089e-07
-2.32019e-06
1.27097e-07
-2.34685e-06
1.17239e-07
-2.37177e-06
1.07485e-07
-2.39491e-06
9.78092e-08
-2.41625e-06
8.81883e-08
-2.43574e-06
7.86007e-08
-2.45336e-06
6.90279e-08
-2.46906e-06
5.94537e-08
-2.48279e-06
4.9864e-08
-2.49452e-06
4.02463e-08
-2.50417e-06
3.05887e-08
-2.51168e-06
2.08785e-08
-2.51698e-06
1.1097e-08
-2.51999e-06
1.23241e-09
-2.52066e-06
-8.72356e-09
-2.51894e-06
-1.8783e-08
-2.51479e-06
-2.89548e-08
-2.50816e-06
-3.92426e-08
-2.49901e-06
-4.96425e-08
-2.48729e-06
-6.01502e-08
-2.47297e-06
-7.076e-08
-2.456e-06
-8.14642e-08
-2.43635e-06
-9.2253e-08
-2.414e-06
-1.03114e-07
-2.38891e-06
-1.14032e-07
-2.36107e-06
-1.24989e-07
-2.33045e-06
-1.35961e-07
-2.29706e-06
-1.46923e-07
-2.2609e-06
-1.57843e-07
-2.22196e-06
-1.68685e-07
-2.18027e-06
-1.79406e-07
-2.13586e-06
-1.89958e-07
-2.08877e-06
-2.00284e-07
-2.03908e-06
-2.10319e-07
-1.98684e-06
-2.1999e-07
-1.93216e-06
-2.29216e-07
-1.87516e-06
-2.37906e-07
-1.81596e-06
-2.4596e-07
-1.75475e-06
-2.53271e-07
-1.6917e-06
-2.59724e-07
-1.62704e-06
-2.65197e-07
-1.561e-06
-2.69564e-07
-1.49387e-06
-2.72698e-07
-1.42594e-06
-2.74469e-07
-1.35756e-06
-2.74757e-07
-1.28909e-06
-2.73447e-07
-1.22091e-06
-2.70438e-07
-1.15343e-06
-2.6565e-07
-1.0871e-06
-2.59027e-07
-1.02235e-06
-2.50543e-07
-9.59644e-07
-2.4021e-07
-8.99429e-07
-2.28079e-07
-8.42152e-07
-2.1425e-07
-7.8824e-07
-1.9887e-07
-7.38091e-07
-1.82138e-07
-6.92066e-07
-1.64307e-07
-6.50503e-07
-1.45676e-07
-6.1373e-07
-1.26572e-07
-5.82042e-07
-1.07275e-07
-5.5558e-07
-8.79263e-08
-5.34265e-07
-6.86425e-08
-5.18156e-07
-4.98553e-08