/*--------------------------------*- C++ -*----------------------------------*\
  =========                 |
  \\      /  F ield         | OpenFOAM: The Open Source CFD Toolbox
   \\    /   O peration     | Website:  https://openfoam.org
    \\  /    A nd           | Version:  9
     \\/     M anipulation  |
\*---------------------------------------------------------------------------*/
FoamFile
{
    format      ascii;
    class       volVectorField;
    location    "0.17";
    object      U;
}
// * * * * * * * * * * * * * * * * * * * * * * * * * * * * * * * * * * * * * //

dimensions      [0 1 -1 0 0 0 0];

internalField   nonuniform List<vector> 
12225
(
(0.929056 -0.320309 0)
(0.894962 -0.0969936 0)
(0.80326 -0.0046361 0)
(0.708841 0.0110485 0)
(0.645096 0.0090254 0)
(0.604016 0.00594018 0)
(0.57414 0.00426142 0)
(0.550416 0.00351916 0)
(0.530727 0.00314268 0)
(0.513944 0.00285236 0)
(0.499653 0.00253562 0)
(0.488017 0.00211075 0)
(0.479647 0.0014562 0)
(0.476278 0.000341676 0)
(0.479762 -0.00164482 0)
(0.497524 -0.0059137 0)
(0.544262 -0.0190499 0)
(0.763057 -0.0597059 0)
(1.02781 0.0750798 0)
(1.00766 0.0635931 0)
(0.974278 0.0340527 0)
(0.932843 0.0236304 0)
(0.895183 0.0184792 0)
(0.863741 0.0142496 0)
(0.837457 0.0112833 0)
(0.81565 0.0094583 0)
(0.797562 0.00826341 0)
(0.782434 0.00730177 0)
(0.769937 0.00631325 0)
(0.760279 0.00504834 0)
(0.754176 0.00313967 0)
(0.753437 -6.81733e-05 0)
(0.760159 -0.00601077 0)
(0.783316 -0.0178302 0)
(0.823243 -0.0487718 0)
(1.01051 -0.114954 0)
(1.00166 0.0241393 0)
(1.00339 0.0346882 0)
(1.00268 0.0312285 0)
(0.988073 0.0283224 0)
(0.967824 0.0243861 0)
(0.946801 0.0200627 0)
(0.926643 0.0166653 0)
(0.908421 0.0143098 0)
(0.892409 0.0125768 0)
(0.878384 0.0110718 0)
(0.866185 0.00946708 0)
(0.855928 0.00738642 0)
(0.848016 0.00425277 0)
(0.843491 -0.000928435 0)
(0.843235 -0.0103638 0)
(0.85159 -0.0278847 0)
(0.865461 -0.0688785 0)
(0.908201 -0.14151 0)
(0.999208 0.00581719 0)
(1.00419 0.0254934 0)
(1.01186 0.0310976 0)
(1.00814 0.0311492 0)
(0.997883 0.0285583 0)
(0.984696 0.0249102 0)
(0.970197 0.0216497 0)
(0.955826 0.0191411 0)
(0.942329 0.0171525 0)
(0.929852 0.0153606 0)
(0.918403 0.0134265 0)
(0.908066 0.0109137 0)
(0.899007 0.00714362 0)
(0.891621 0.000985478 0)
(0.885788 -0.00989259 0)
(0.882373 -0.0289703 0)
(0.876205 -0.0663411 0)
(0.85947 -0.12342 0)
(1.00008 0.0044195 0)
(1.00541 0.0236977 0)
(1.01471 0.0308182 0)
(1.01614 0.032276 0)
(1.01203 0.0310672 0)
(1.00452 0.0284301 0)
(0.994731 0.0256904 0)
(0.983992 0.0233692 0)
(0.973156 0.0214038 0)
(0.962553 0.0195641 0)
(0.952304 0.0175412 0)
(0.942475 0.0148956 0)
(0.933068 0.0109445 0)
(0.924022 0.00459704 0)
(0.914571 -0.00614063 0)
(0.903726 -0.0237475 0)
(0.885933 -0.0538749 0)
(0.847609 -0.09406 0)
(1.00051 0.00511042 0)
(1.00564 0.0219199 0)
(1.0149 0.0294167 0)
(1.019 0.0321038 0)
(1.01873 0.0322086 0)
(1.01519 0.0306746 0)
(1.00911 0.0286768 0)
(1.00151 0.0267959 0)
(0.993167 0.025091 0)
(0.984471 0.0234222 0)
(0.975577 0.0215354 0)
(0.966523 0.0190353 0)
(0.957184 0.0153128 0)
(0.947207 0.00945418 0)
(0.935479 9.95915e-06 0)
(0.920235 -0.0144858 0)
(0.896429 -0.0365149 0)
(0.852954 -0.0614799 0)
(1.00059 0.00480741 0)
(1.00538 0.0194924 0)
(1.01409 0.0273597 0)
(1.01949 0.0310997 0)
(1.02153 0.0323431 0)
(1.02073 0.0318779 0)
(1.01744 0.0307163 0)
(1.01242 0.0294335 0)
(1.00628 0.0281666 0)
(0.999362 0.0268541 0)
(0.991824 0.0253083 0)
(0.983654 0.02321 0)
(0.974639 0.0200767 0)
(0.964263 0.0152468 0)
(0.951326 0.00783185 0)
(0.933908 -0.00278098 0)
(0.907992 -0.0170876 0)
(0.866401 -0.0295939 0)
(1.00064 0.00402724 0)
(1.00501 0.0170006 0)
(1.01293 0.0250611 0)
(1.01882 0.0295778 0)
(1.0222 0.0317574 0)
(1.02321 0.0322678 0)
(1.02199 0.0319558 0)
(1.019 0.0313561 0)
(1.01471 0.0306526 0)
(1.00938 0.0298474 0)
(1.00312 0.0288237 0)
(0.995871 0.0273566 0)
(0.987366 0.025117 0)
(0.977036 0.0217102 0)
(0.963775 0.0167327 0)
(0.945843 0.010188 0)
(0.920469 0.00268173 0)
(0.883613 -0.000315217 0)
(1.00072 0.00318553 0)
(1.00464 0.0146732 0)
(1.01169 0.0226897 0)
(1.0176 0.0277267 0)
(1.02168 0.0306524 0)
(1.02386 0.0320194 0)
(1.02411 0.0325212 0)
(1.02269 0.032638 0)
(1.01991 0.0325788 0)
(1.01594 0.0323973 0)
(1.01084 0.0320461 0)
(1.00452 0.0314007 0)
(0.996678 0.030288 0)
(0.986785 0.0285533 0)
(0.973913 0.0261617 0)
(0.956706 0.0234896 0)
(0.933473 0.0216551 0)
(0.902247 0.0255908 0)
(1.00079 0.00232558 0)
(1.00428 0.0124842 0)
(1.01046 0.0202943 0)
(1.01609 0.0256511 0)
(1.02046 0.0291512 0)
(1.02332 0.0312421 0)
(1.02457 0.0324853 0)
(1.02431 0.0333036 0)
(1.02272 0.0339173 0)
(1.01989 0.0344214 0)
(1.01582 0.0348333 0)
(1.01041 0.0351241 0)
(1.00337 0.0352602 0)
(0.994243 0.035278 0)
(0.982337 0.0353831 0)
(0.96671 0.0361466 0)
(0.946514 0.0388085 0)
(0.920946 0.0476411 0)
(1.00086 0.00168104 0)
(1.00391 0.0106412 0)
(1.00922 0.0181477 0)
(1.01437 0.0236785 0)
(1.01867 0.0276249 0)
(1.02182 0.0303436 0)
(1.02364 0.0322858 0)
(1.02414 0.0338184 0)
(1.02339 0.0351627 0)
(1.02142 0.0364444 0)
(1.0182 0.0377347 0)
(1.0136 0.0390839 0)
(1.0074 0.040566 0)
(0.999248 0.0423442 0)
(0.988678 0.04475 0)
(0.97514 0.048402 0)
(0.958407 0.0544601 0)
(0.938343 0.0665063 0)
(1.00094 0.000378522 0)
(1.00381 0.00855856 0)
(1.00851 0.0157403 0)
(1.01323 0.0212887 0)
(1.0174 0.0254725 0)
(1.02067 0.0285879 0)
(1.02283 0.0310112 0)
(1.02383 0.0330682 0)
(1.02365 0.034981 0)
(1.02229 0.0369009 0)
(1.01967 0.0389446 0)
(1.0157 0.0412262 0)
(1.01018 0.0438977 0)
(1.00288 0.0471988 0)
(0.993514 0.0515091 0)
(0.981848 0.0574089 0)
(0.968016 0.065857 0)
(0.952207 0.0798872 0)
(1.00081 -0.000102909 0)
(1.00336 0.00721251 0)
(1.00752 0.0141163 0)
(1.01182 0.0196766 0)
(1.01579 0.0241013 0)
(1.01909 0.0276369 0)
(1.02151 0.0305955 0)
(1.02293 0.0332633 0)
(1.02332 0.0358543 0)
(1.02263 0.0385323 0)
(1.0208 0.0414402 0)
(1.01772 0.0447269 0)
(1.01328 0.0485787 0)
(1.00733 0.0532527 0)
(0.999753 0.0591016 0)
(0.990496 0.0665919 0)
(0.979829 0.0765081 0)
(0.967654 0.0918556 0)
(1.0007 -0.000949422 0)
(1.00296 0.00537656 0)
(1.00673 0.0119781 0)
(1.01069 0.0174498 0)
(1.01452 0.0219986 0)
(1.0179 0.0258434 0)
(1.02062 0.0292439 0)
(1.02253 0.0324492 0)
(1.02356 0.0356634 0)
(1.02365 0.0390587 0)
(1.02273 0.042797 0)
(1.02072 0.0470508 0)
(1.01755 0.0520241 0)
(1.01316 0.0579679 0)
(1.00752 0.0651852 0)
(1.00071 0.0740222 0)
(0.993016 0.0851174 0)
(0.984348 0.101746 0)
(1.00055 -0.00178098 0)
(1.00251 0.00337125 0)
(1.00588 0.0096319 0)
(1.00947 0.0149287 0)
(1.01308 0.0195103 0)
(1.01644 0.0235919 0)
(1.01932 0.027394 0)
(1.02159 0.0311317 0)
(1.02316 0.034995 0)
(1.02394 0.0391563 0)
(1.02389 0.0437838 0)
(1.02295 0.0490544 0)
(1.0211 0.055164 0)
(1.01834 0.0623298 0)
(1.01472 0.0707828 0)
(1.01038 0.0807503 0)
(1.00555 0.0927769 0)
(1.00037 0.110344 0)
(1.00037 -0.00255821 0)
(1.002 0.00120679 0)
(1.00494 0.00706929 0)
(1.00816 0.0121 0)
(1.01152 0.0166022 0)
(1.01479 0.0208057 0)
(1.01777 0.0249073 0)
(1.02034 0.0290919 0)
(1.02239 0.0335302 0)
(1.02386 0.0383825 0)
(1.0247 0.0438063 0)
(1.02491 0.0499615 0)
(1.02448 0.0570126 0)
(1.02347 0.0651242 0)
(1.02197 0.0744483 0)
(1.02014 0.085109 0)
(1.01807 0.0975965 0)
(1.01636 0.115561 0)
(1.00019 -0.00323654 0)
(1.0015 -0.00101302 0)
(1.00399 0.00432505 0)
(1.00688 0.00896258 0)
(1.01004 0.013242 0)
(1.01326 0.0174158 0)
(1.01637 0.0216665 0)
(1.01927 0.0261513 0)
(1.02185 0.0310144 0)
(1.02407 0.0363909 0)
(1.02591 0.0424105 0)
(1.02736 0.0491979 0)
(1.02847 0.0568711 0)
(1.0293 0.065535 0)
(1.02996 0.0752687 0)
(1.03059 0.0861175 0)
(1.03107 0.0985316 0)
(1.0327 0.116147 0)
(1.00003 -0.00376775 0)
(1.00107 -0.00316483 0)
(1.00313 0.00140444 0)
(1.00581 0.0054325 0)
(1.0089 0.00927352 0)
(1.0122 0.0131945 0)
(1.01558 0.0173626 0)
(1.01893 0.021904 0)
(1.02218 0.0269275 0)
(1.02528 0.0325302 0)
(1.02823 0.0388006 0)
(1.03105 0.0458175 0)
(1.03377 0.0536474 0)
(1.03646 0.0623397 0)
(1.03922 0.0719175 0)
(1.04217 0.0823745 0)
(1.04492 0.0941144 0)
(1.04965 0.110492 0)
(0.999958 -0.00412499 0)
(1.00081 -0.0051991 0)
(1.00252 -0.00187631 0)
(1.00519 0.00114003 0)
(1.00845 0.00418023 0)
(1.01209 0.00749339 0)
(1.01596 0.0112132 0)
(1.01996 0.0154243 0)
(1.02404 0.0201888 0)
(1.02816 0.0255559 0)
(1.03231 0.0315664 0)
(1.03651 0.0382515 0)
(1.04081 0.0456314 0)
(1.04525 0.0537121 0)
(1.04993 0.0624807 0)
(1.05494 0.0719016 0)
(1.05965 0.0823168 0)
(1.06706 0.0965902 0)
(0.999874 -0.00479616 0)
(1.00067 -0.00670387 0)
(1.00238 -0.00495816 0)
(1.00535 -0.00324281 0)
(1.00904 -0.0012208 0)
(1.01319 0.00128809 0)
(1.01765 0.00436022 0)
(1.02231 0.00802388 0)
(1.02711 0.0122868 0)
(1.03202 0.0171498 0)
(1.03705 0.0226105 0)
(1.04223 0.0286626 0)
(1.04759 0.0352944 0)
(1.05316 0.0424869 0)
(1.05903 0.0502107 0)
(1.06529 0.058419 0)
(1.07126 0.0673483 0)
(1.0799 0.0792359 0)
(0.99974 -0.00506797 0)
(1.00055 -0.00795481 0)
(1.0025 -0.0077622 0)
(1.00591 -0.00723977 0)
(1.01006 -0.00612114 0)
(1.01467 -0.00431261 0)
(1.01956 -0.00180219 0)
(1.02463 0.00137495 0)
(1.02983 0.0051717 0)
(1.03513 0.00954576 0)
(1.04057 0.0144616 0)
(1.04618 0.0198889 0)
(1.052 0.025798 0)
(1.05806 0.0321581 0)
(1.06445 0.0389347 0)
(1.07126 0.0460821 0)
(1.0778 0.0537682 0)
(1.08686 0.0637837 0)
(0.999607 -0.00520497 0)
(1.00044 -0.00920462 0)
(1.00278 -0.0105746 0)
(1.00672 -0.0111578 0)
(1.01132 -0.0108227 0)
(1.01628 -0.00958142 0)
(1.02142 -0.00750483 0)
(1.02663 -0.00470183 0)
(1.03189 -0.0012776 0)
(1.03722 0.00268378 0)
(1.04266 0.00711788 0)
(1.04828 0.0119751 0)
(1.05412 0.0172156 0)
(1.06022 0.0228043 0)
(1.06668 0.0287071 0)
(1.07359 0.034883 0)
(1.08029 0.0414458 0)
(1.08931 0.0498162 0)
(0.999439 -0.0052265 0)
(1.00025 -0.0105491 0)
(1.00313 -0.0134334 0)
(1.00763 -0.0149539 0)
(1.0126 -0.0152155 0)
(1.01772 -0.014339 0)
(1.02281 -0.0124992 0)
(1.0278 -0.00990426 0)
(1.03271 -0.00672555 0)
(1.03765 -0.00307199 0)
(1.04268 0.000970085 0)
(1.04789 0.00533767 0)
(1.05335 0.00998433 0)
(1.05911 0.0148768 0)
(1.06527 0.0199872 0)
(1.07192 0.0252821 0)
(1.07848 0.0308358 0)
(1.08711 0.0377693 0)
(0.99922 -0.00510226 0)
(0.999899 -0.012104 0)
(1.00345 -0.0163691 0)
(1.0085 -0.0185638 0)
(1.01362 -0.0191743 0)
(1.01857 -0.0184097 0)
(1.02318 -0.0165676 0)
(1.02744 -0.013991 0)
(1.0315 -0.0109198 0)
(1.03553 -0.0074834 0)
(1.03969 -0.00376648 0)
(1.04407 0.00016961 0)
(1.04876 0.00427907 0)
(1.05384 0.00853191 0)
(1.05937 0.0129094 0)
(1.06548 0.0173888 0)
(1.07168 0.0220159 0)
(1.07966 0.0276806 0)
(0.998864 -0.00446485 0)
(0.999228 -0.0137447 0)
(1.00369 -0.019297 0)
(1.00911 -0.021855 0)
(1.01394 -0.0225005 0)
(1.0181 -0.0215413 0)
(1.02153 -0.0194534 0)
(1.02437 -0.016731 0)
(1.02692 -0.0136577 0)
(1.02947 -0.0103767 0)
(1.03224 -0.00695955 0)
(1.03536 -0.00344326 0)
(1.03894 0.000145012 0)
(1.04303 0.00378363 0)
(1.04769 0.00746169 0)
(1.05303 0.0111655 0)
(1.05868 0.0149189 0)
(1.06587 0.0194375 0)
(0.997865 -0.00224934 0)
(0.997798 -0.0147532 0)
(1.0036 -0.0217642 0)
(1.00901 -0.0245108 0)
(1.0126 -0.0248583 0)
(1.01491 -0.0233772 0)
(1.01608 -0.0208334 0)
(1.01651 -0.0178687 0)
(1.01674 -0.014777 0)
(1.01718 -0.0116633 0)
(1.01805 -0.00857519 0)
(1.01952 -0.00551802 0)
(1.02167 -0.00248138 0)
(1.02454 0.000531013 0)
(1.02814 0.00351825 0)
(1.03257 0.00646897 0)
(1.03753 0.00938139 0)
(1.04388 0.0128342 0)
(0.995579 -0.00029615 0)
(0.995133 -0.0155114 0)
(1.00249 -0.0232615 0)
(1.00679 -0.0259967 0)
(1.0074 -0.0257353 0)
(1.00599 -0.0234439 0)
(1.00327 -0.0203435 0)
(1.00002 -0.0171766 0)
(0.997005 -0.0141646 0)
(0.994663 -0.0113368 0)
(0.993194 -0.00867868 0)
(0.992677 -0.00616429 0)
(0.993164 -0.00374533 0)
(0.994638 -0.00139952 0)
(0.997067 0.00088642 0)
(1.00047 0.00310076 0)
(1.00467 0.00519914 0)
(1.01017 0.0076214 0)
(0.995045 -0.0121037 0)
(0.994128 -0.0235777 0)
(0.999641 -0.0255522 0)
(0.998695 -0.0261854 0)
(0.992592 -0.0247112 0)
(0.98435 -0.0214247 0)
(0.975392 -0.0178278 0)
(0.966892 -0.0146437 0)
(0.95965 -0.0119213 0)
(0.953934 -0.00955871 0)
(0.949737 -0.00746969 0)
(0.946995 -0.00558471 0)
(0.945627 -0.00385224 0)
(0.945573 -0.00221169 0)
(0.946708 -0.000634359 0)
(0.948982 0.000871182 0)
(0.952275 0.00220158 0)
(0.956963 0.0035918 0)
(1.01566 -0.0642401 0)
(1.00874 -0.0612405 0)
(0.99407 -0.036376 0)
(0.972622 -0.0262387 0)
(0.950236 -0.0217316 0)
(0.929567 -0.0175604 0)
(0.911267 -0.013838 0)
(0.895911 -0.0109367 0)
(0.883648 -0.00870813 0)
(0.874151 -0.00693067 0)
(0.86698 -0.00546165 0)
(0.861791 -0.00422205 0)
(0.858347 -0.00316604 0)
(0.856526 -0.00218811 0)
(0.856109 -0.00125995 0)
(0.856931 -0.000391929 0)
(0.85893 0.000285135 0)
(0.862666 0.000758961 0)
(0.963417 0.266585 0)
(0.966032 0.0977501 0)
(0.908633 0.0138704 0)
(0.834503 -0.00662109 0)
(0.776917 -0.00836244 0)
(0.736948 -0.00633641 0)
(0.708035 -0.00444112 0)
(0.686321 -0.00323806 0)
(0.669857 -0.00248242 0)
(0.657282 -0.00193701 0)
(0.647613 -0.00149365 0)
(0.640234 -0.00113899 0)
(0.634642 -0.000865889 0)
(0.630449 -0.000600275 0)
(0.627557 -0.00034054 0)
(0.625862 -0.000102628 0)
(0.625335 4.0017e-05 0)
(0.627015 -0.000111648 0)
(0.0162591 -0.0112655 -2.6385e-21)
(0.0443875 -0.0370958 1.85125e-21)
(0.0839719 -0.0507845 0)
(0.130484 -0.0573597 0)
(0.176391 -0.058695 0)
(0.219021 -0.0563135 -9.8418e-22)
(0.257514 -0.0515638 0)
(0.291289 -0.0454037 0)
(0.319944 -0.0384563 0)
(0.343255 -0.0310955 0)
(0.361129 -0.023516 7.07281e-22)
(0.373547 -0.0157792 0)
(0.380558 -0.00789699 0)
(0.382001 -9.89753e-05 0)
(0.378063 0.00706074 0)
(0.369438 0.0128135 4.57914e-22)
(0.356963 0.0166138 0)
(0.341126 0.0183594 0)
(0.323817 0.0156972 0)
(0.307388 0.013487 0)
(0.286238 0.0222479 0)
(0.261249 0.0266591 0)
(0.238095 0.0236171 0)
(0.215941 0.0183016 2.86071e-22)
(0.190545 0.0168859 -3.83017e-22)
(0.164066 0.0234401 4.30671e-22)
(0.136037 0.0249808 4.84096e-22)
(0.101674 0.0288087 0)
(0.0678409 0.0384901 0)
(0.0280459 0.0377958 -1.08566e-21)
(-0.0288352 0.0376378 -1.43719e-21)
(-0.0741953 0.0444973 0)
(-0.132666 0.0565477 0)
(-0.194662 0.0734864 -1.9164e-21)
(-0.265494 0.0731031 0)
(-0.348364 0.0681491 0)
(-0.42966 0.0758497 2.33982e-21)
(-0.51901 0.0818204 0)
(-0.612692 0.0862117 2.6134e-21)
(-0.70935 0.0892291 5.53052e-21)
(-0.807699 0.0909433 0)
(-0.906551 0.0914333 0)
(-1.00484 0.0908116 0)
(-1.10164 0.0892217 0)
(-1.19617 0.0868273 0)
(-1.2878 0.0837992 7.63396e-21)
(-1.37607 0.0803029 7.98091e-21)
(-1.46064 0.0764893 8.31453e-21)
(-1.54127 0.0724886 0)
(-1.61787 0.0684078 -8.9315e-21)
(-1.69038 0.0643304 0)
(-1.75884 0.060318 9.47152e-21)
(-1.8233 0.0564125 9.71099e-21)
(-1.88388 0.0526397 0)
(-1.94067 0.0490121 0)
(-1.99381 0.0455322 0)
(-2.04341 0.0421945 1.04667e-20)
(-2.08958 0.038988 0)
(-2.13244 0.0358978 0)
(-2.17207 0.032906 0)
(-2.20855 0.0299933 0)
(-2.24194 0.0271393 0)
(-2.27228 0.0243232 0)
(-2.29961 0.0215252 0)
(-2.32392 0.0187278 0)
(-2.34522 0.0159176 -1.10906e-20)
(-2.36347 0.0130887 0)
(-2.37865 0.0102492 0)
(-2.39071 0.00742633 1.0999e-20)
(-2.39962 0.00467829 1.09373e-20)
(-2.40531 0.00212097 0)
(-2.40775 -0.000175701 -1.07662e-20)
(-2.40708 -0.00221853 1.0648e-20)
(-2.40369 -0.0040364 0)
(-2.39779 -0.00571109 -1.03422e-20)
(-2.38941 -0.00732261 0)
(-2.37858 -0.00890717 0)
(-2.3653 -0.0104782 9.7184e-21)
(-2.34956 -0.0120413 0)
(-2.33134 -0.0135987 -9.18761e-21)
(-2.31064 -0.015151 0)
(-2.28743 -0.0166976 8.56019e-21)
(-2.26171 -0.0182374 8.20882e-21)
(-2.23346 -0.0197686 7.83153e-21)
(-2.20269 -0.0212889 1.48555e-20)
(-2.16939 -0.0227949 -1.39936e-20)
(-2.13358 -0.0242829 0)
(-2.09526 -0.0257482 0)
(-2.05445 -0.0271849 0)
(-2.0112 -0.0285863 -9.9839e-21)
(-1.96555 -0.0299442 -8.83898e-21)
(-1.91755 -0.0312485 7.63859e-21)
(-1.86729 -0.0324874 0)
(-1.81487 -0.0336469 -5.08147e-21)
(-1.7604 -0.0347114 -3.73207e-21)
(-1.70404 -0.0356632 -2.34187e-21)
(-1.64595 -0.0364832 0)
(-1.58634 -0.0371508 0)
(-1.52544 -0.0376441 0)
(-1.46354 -0.0379408 3.49117e-21)
(-1.40092 -0.0380185 0)
(-1.33795 -0.0378554 0)
(-1.27499 -0.0374318 -7.89702e-21)
(-1.21245 -0.0367311 0)
(-1.15075 -0.0357409 0)
(-1.09037 -0.0344551 -1.19825e-20)
(-1.03176 -0.0328747 0)
(-0.975397 -0.0310098 0)
(-0.92174 -0.0288792 1.53973e-20)
(-0.871231 -0.0265112 1.63297e-20)
(-0.824278 -0.0239446 0)
(-0.781247 -0.0212293 -1.78277e-20)
(-0.742424 -0.0184177 0)
(-0.708021 -0.0155716 1.87979e-20)
(-0.678262 -0.0128493 0)
(-0.653155 -0.0107315 1.92203e-20)
(-0.631969 -0.0101829 1.92326e-20)
(-0.613987 -0.0111276 0)
(-0.599946 -0.0119725 0)
(-0.589272 -0.0241135 0)
(-0.579303 -0.015974 0)
(-0.576577 0.00101741 0)
(-0.577288 0.00970571 0)
(-0.584089 0.0114188 0)
(-0.588757 -0.0112875 1.52227e-20)
(-0.591565 -0.00150677 -1.32008e-20)
(-0.601656 -0.00214453 0)
(-0.610333 -0.00471463 0)
(-0.623677 0.0139449 0)
(-0.639462 0.0133593 0)
(-0.6548 0.00623015 -1.71517e-20)
(-0.669269 0.00656489 0)
(-0.684336 0.00704952 1.36487e-20)
(-0.700615 0.013704 -1.2228e-20)
(-0.71853 0.0117184 0)
(-0.732493 -0.0150876 0)
(-0.743569 -0.00757937 0)
(-0.757334 0.00861448 5.95644e-21)
(-0.771088 0.00577887 4.83668e-21)
(-0.781238 0.00373583 0)
(-0.788826 0.00443407 2.98741e-21)
(-0.794816 0.00520785 2.2605e-21)
(-0.7995 0.0122921 -1.72293e-21)
(-0.799898 -0.00797521 0)
(-0.792508 -0.017917 0)
(-0.785102 0.000308343 -9.4515e-22)
(-0.779425 0.0130372 0)
(-0.771175 0.00604285 0)
(-0.751949 -0.0291589 0)
(-0.727647 -0.0226537 0)
(-0.705257 -0.00557295 2.96373e-21)
(-0.678544 -0.0154937 3.83579e-21)
(-0.645847 -0.0201833 0)
(-0.609729 -0.0178937 5.92804e-21)
(-0.569766 -0.0198149 0)
(-0.525985 -0.0185845 0)
(-0.4803 -0.0145543 1.0196e-20)
(-0.430183 -0.0211907 0)
(-0.373099 -0.0337802 1.32698e-20)
(-0.317348 -0.0252913 0)
(-0.258457 -0.0255326 0)
(-0.196412 -0.0305029 1.75276e-20)
(-0.134762 -0.0286592 0)
(-0.0714877 -0.0287648 2.03896e-20)
(-0.00803494 -0.0287603 0)
(0.0555172 -0.0284018 0)
(0.118632 -0.0277545 0)
(0.180776 -0.0269205 -2.18595e-20)
(0.241509 -0.025951 0)
(0.300479 -0.0248888 2.11958e-20)
(0.357444 -0.0237749 0)
(0.412254 -0.0226436 0)
(0.464834 -0.0215171 0)
(0.515139 -0.0204002 0)
(0.563094 -0.0192713 0)
(0.608456 -0.0180742 0)
(0.650803 -0.0166376 0)
(0.688121 -0.0147173 -3.25549e-20)
(0.720405 -0.0103514 0)
(0.726506 -0.000739677 0)
(0.0254626 -0.0909423 8.00949e-21)
(0.0688347 -0.135904 -5.47078e-21)
(0.111998 -0.143314 0)
(0.152553 -0.138974 2.24886e-21)
(0.188352 -0.12917 0)
(0.219102 -0.11633 7.37623e-22)
(0.245263 -0.101839 -1.56911e-21)
(0.267158 -0.086539 -1.43904e-21)
(0.284919 -0.0709461 0)
(0.298619 -0.0553817 -1.22347e-21)
(0.308329 -0.0400479 -5.11581e-22)
(0.314149 -0.025077 0)
(0.316167 -0.0105848 0)
(0.314806 0.00319198 0)
(0.310091 0.0159097 0)
(0.301884 0.027172 -3.368e-22)
(0.290056 0.0368066 0)
(0.27447 0.0448634 4.45452e-22)
(0.254778 0.0514801 0)
(0.230546 0.0572334 0)
(0.20287 0.0616922 -2.52601e-22)
(0.172967 0.064208 0)
(0.139863 0.0668663 2.0259e-22)
(0.102976 0.0718926 -2.21067e-22)
(0.0562386 0.0785629 2.7336e-22)
(0.00968189 0.083902 -3.31646e-22)
(-0.0440244 0.0925395 -3.87989e-22)
(-0.103672 0.103129 0)
(-0.168175 0.117261 0)
(-0.244266 0.133679 5.50829e-22)
(-0.323811 0.145681 -2.33349e-22)
(-0.410388 0.158731 0)
(-0.502186 0.173718 0)
(-0.597863 0.190114 8.82685e-22)
(-0.698245 0.204859 0)
(-0.800917 0.215617 0)
(-0.903824 0.224375 -1.13673e-21)
(-1.00557 0.230204 0)
(-1.10516 0.232826 1.15918e-21)
(-1.2019 0.232506 -2.89723e-21)
(-1.29514 0.22959 0)
(-1.38435 0.224461 0)
(-1.46915 0.217527 -7.23419e-21)
(-1.54936 0.209199 -7.82463e-21)
(-1.62492 0.199862 -8.4121e-21)
(-1.69589 0.189866 4.45654e-21)
(-1.7624 0.17951 -4.81452e-21)
(-1.82465 0.169038 -1.5184e-20)
(-1.88285 0.158642 1.06162e-20)
(-1.93723 0.148466 5.60218e-21)
(-1.98803 0.138607 0)
(-2.03544 0.129129 -6.06238e-21)
(-2.07968 0.120062 6.15472e-21)
(-2.12091 0.111418 0)
(-2.15929 0.10319 0)
(-2.19495 0.0953589 0)
(-2.22799 0.0878987 -6.94378e-21)
(-2.25852 0.0807788 0)
(-2.28662 0.0739663 1.4264e-20)
(-2.31234 0.0674281 0)
(-2.33574 0.0611315 1.4649e-20)
(-2.35687 0.0550455 0)
(-2.37578 0.0491407 -1.49235e-20)
(-2.39249 0.0433898 0)
(-2.40705 0.0377679 1.50886e-20)
(-2.41951 0.0322531 -7.55148e-21)
(-2.4299 0.026825 0)
(-2.43828 0.0214671 -1.51307e-20)
(-2.44473 0.0161708 -7.53163e-21)
(-2.44932 0.0109511 -7.48799e-21)
(-2.45219 0.00586734 0)
(-2.45336 0.00100433 -7.42861e-21)
(-2.45283 -0.00360672 -7.26471e-21)
(-2.45024 -0.00800442 0)
(-2.44534 -0.0122578 7.02519e-21)
(-2.43807 -0.0164182 -1.39095e-20)
(-2.42837 -0.020518 0)
(-2.4162 -0.024572 -6.5472e-21)
(-2.40153 -0.0285864 0)
(-2.38434 -0.0325627 1.8695e-20)
(-2.3646 -0.0365001 0)
(-2.34229 -0.0403959 -1.73604e-20)
(-2.3174 -0.0442457 -5.42926e-21)
(-2.28991 -0.0480442 5.51811e-21)
(-2.25981 -0.0517845 1.05164e-20)
(-2.2271 -0.0554584 -9.9643e-21)
(-2.19178 -0.059056 0)
(-2.15386 -0.0625658 0)
(-2.11337 -0.0659743 0)
(-2.07032 -0.0692657 2.01678e-20)
(-2.02477 -0.0724218 5.60176e-21)
(-1.97677 -0.0754214 -4.8099e-21)
(-1.9264 -0.0782398 0)
(-1.87375 -0.0808495 -4.42954e-21)
(-1.81893 -0.0832197 2.30231e-21)
(-1.76209 -0.0853168 1.43441e-21)
(-1.70338 -0.0871048 0)
(-1.64299 -0.0885456 0)
(-1.58114 -0.0895996 0)
(-1.51809 -0.0902265 -2.07727e-21)
(-1.45411 -0.0903867 0)
(-1.38952 -0.090042 6.09838e-21)
(-1.32466 -0.0891581 1.23542e-20)
(-1.2599 -0.0877056 -9.35402e-21)
(-1.19565 -0.0856629 0)
(-1.13234 -0.0830179 -5.50577e-21)
(-1.07039 -0.0797703 0)
(-1.01028 -0.0759336 -1.50994e-20)
(-0.952458 -0.0715364 7.57243e-21)
(-0.897372 -0.0666234 8.17775e-21)
(-0.845459 -0.0612562 0)
(-0.797123 -0.0555135 2.95604e-20)
(-0.75272 -0.0494862 -2.02127e-20)
(-0.712524 -0.043286 -1.08123e-20)
(-0.676733 -0.0370809 0)
(-0.645555 -0.0310738 -1.1245e-20)
(-0.619251 -0.0253297 -3.37176e-20)
(-0.597739 -0.0195108 0)
(-0.580525 -0.0129604 -2.26583e-20)
(-0.569941 -0.00677143 -2.22315e-20)
(-0.563968 -0.00297074 -2.06149e-20)
(-0.561158 -0.000473254 0)
(-0.559928 0.00168407 0)
(-0.562832 0.00504659 0)
(-0.571433 0.00911719 1.03265e-20)
(-0.580098 0.0109944 9.15516e-21)
(-0.59334 0.0135693 0)
(-0.606846 0.0145059 1.55486e-20)
(-0.621495 0.0148469 1.46811e-20)
(-0.636606 0.0152941 0)
(-0.653409 0.0159984 1.26183e-20)
(-0.670775 0.0163274 2.31597e-20)
(-0.688208 0.0164557 -1.01083e-20)
(-0.70379 0.0159943 -9.60991e-21)
(-0.719373 0.0164673 0)
(-0.736264 0.0180162 0)
(-0.750892 0.0157835 0)
(-0.7635 0.0133944 -4.24189e-21)
(-0.774121 0.0106559 3.55699e-21)
(-0.783758 0.00827136 5.57959e-21)
(-0.791536 0.00590701 -2.14611e-21)
(-0.797049 0.00317631 1.72749e-21)
(-0.798789 0.000526332 1.24819e-21)
(-0.799374 -0.00110963 0)
(-0.797397 -0.0035787 0)
(-0.79256 -0.00749186 -4.82539e-22)
(-0.782124 -0.0118109 0)
(-0.768053 -0.0149255 0)
(-0.752048 -0.0152944 1.71518e-21)
(-0.733065 -0.0184834 0)
(-0.709052 -0.0222759 1.43542e-21)
(-0.679615 -0.0263069 -2.71598e-21)
(-0.647614 -0.0292985 0)
(-0.611931 -0.032599 3.25161e-21)
(-0.571724 -0.0359819 0)
(-0.528299 -0.0391085 0)
(-0.480594 -0.0424218 -6.95057e-21)
(-0.42836 -0.0453467 1.6881e-20)
(-0.372926 -0.0458943 -8.83377e-21)
(-0.317696 -0.0476637 0)
(-0.256579 -0.0492029 0)
(-0.19387 -0.0504346 1.02061e-20)
(-0.132487 -0.0505303 0)
(-0.0685869 -0.0507683 1.18611e-20)
(-0.00420399 -0.0505882 0)
(0.06036 -0.0499057 0)
(0.124578 -0.0487742 0)
(0.187976 -0.0472913 1.45496e-20)
(0.25013 -0.0455395 0)
(0.310688 -0.0436021 -1.45198e-20)
(0.369391 -0.0415601 0)
(0.426073 -0.0394798 0)
(0.480636 -0.0374012 2.70153e-20)
(0.53302 -0.0353255 -2.64249e-20)
(0.583146 -0.0331954 0)
(0.630803 -0.0308714 0)
(0.675614 -0.0279981 0)
(0.716368 -0.0239811 7.21049e-20)
(0.752528 -0.0159477 0)
(0.779362 -0.000929708 -4.71323e-20)
(0.0272895 -0.188845 4.65351e-22)
(0.0665119 -0.23863 7.11773e-21)
(0.100591 -0.230243 0)
(0.130576 -0.211061 -4.17626e-21)
(0.155848 -0.18897 0)
(0.176565 -0.165768 0)
(0.193275 -0.142149 -1.47061e-22)
(0.206353 -0.118494 1.21806e-21)
(0.215985 -0.0950384 1.20487e-21)
(0.222259 -0.0719554 1.03233e-21)
(0.225226 -0.0493891 0)
(0.224904 -0.0274718 0)
(0.221306 -0.00635234 -7.84852e-22)
(0.214489 0.0138259 -1.36669e-21)
(0.204349 0.0329028 1.16545e-21)
(0.1908 0.0506676 0)
(0.17362 0.0670018 7.73887e-22)
(0.152524 0.0819931 -3.79723e-22)
(0.127187 0.0959214 0)
(0.0973107 0.109082 2.69688e-22)
(0.0629505 0.121233 2.06964e-22)
(0.0241329 0.132514 -6.47244e-23)
(-0.0200104 0.1442 -1.5924e-22)
(-0.0699048 0.157715 0)
(-0.12593 0.173482 2.22647e-23)
(-0.187554 0.190435 1.0361e-22)
(-0.255238 0.209411 0)
(-0.328481 0.230256 3.07064e-22)
(-0.406385 0.252635 0)
(-0.488743 0.274879 6.0594e-22)
(-0.574878 0.295574 5.7836e-22)
(-0.664586 0.315686 0)
(-0.755623 0.334483 0)
(-0.846076 0.350582 0)
(-0.935286 0.362273 0)
(-1.02256 0.369396 0)
(-1.10724 0.372705 0)
(-1.18826 0.37215 3.29255e-21)
(-1.2653 0.3679 -5.49762e-21)
(-1.33836 0.360347 0)
(-1.40751 0.350011 0)
(-1.47294 0.337466 0)
(-1.53487 0.32328 -1.8494e-22)
(-1.59357 0.307984 5.69748e-21)
(-1.6493 0.292044 1.24114e-20)
(-1.70231 0.275849 -1.32385e-20)
(-1.75281 0.25971 -7.06279e-21)
(-1.80098 0.243863 7.37186e-21)
(-1.84698 0.228474 3.2636e-23)
(-1.89092 0.213651 8.11583e-21)
(-1.9329 0.199457 0)
(-1.97299 0.185915 8.72513e-21)
(-2.01123 0.173022 -4.89484e-23)
(-2.04766 0.160754 0)
(-2.0823 0.149075 0)
(-2.11518 0.137942 -9.71343e-21)
(-2.14629 0.127306 0)
(-2.17565 0.117119 0)
(-2.20325 0.107334 1.01707e-20)
(-2.22908 0.0979049 2.07953e-20)
(-2.25316 0.0887917 -1.06e-20)
(-2.27546 0.0799577 0)
(-2.29598 0.0713709 1.07806e-20)
(-2.31471 0.0630049 0)
(-2.33165 0.0548388 1.07835e-20)
(-2.34678 0.0468579 1.0903e-20)
(-2.3601 0.0390535 -2.17525e-20)
(-2.37159 0.0314224 -1.08537e-20)
(-2.38124 0.0239643 0)
(-2.38901 0.0166757 2.15998e-20)
(-2.39483 0.00953733 0)
(-2.39861 0.00251977 3.19083e-20)
(-2.40027 -0.0044239 2.10688e-20)
(-2.39969 -0.0113149 2.07869e-20)
(-2.39684 -0.0181546 -2.04636e-20)
(-2.39166 -0.0249408 3.00268e-20)
(-2.38411 -0.0316727 0)
(-2.37413 -0.0383514 0)
(-2.3617 -0.0449764 -1.87389e-20)
(-2.34678 -0.0515452 -2.70955e-20)
(-2.32933 -0.0580531 0)
(-2.30932 -0.0644935 8.24713e-21)
(-2.28674 -0.0708579 0)
(-2.26155 -0.0771358 -2.3097e-20)
(-2.23375 -0.0833147 6.18856e-22)
(-2.20332 -0.08938 -6.62174e-22)
(-2.17026 -0.0953145 1.31723e-20)
(-2.13456 -0.101098 0)
(-2.09625 -0.106709 -1.13486e-20)
(-2.05536 -0.112119 8.28146e-22)
(-2.0119 -0.117299 0)
(-1.96595 -0.122214 0)
(-1.91756 -0.126826 0)
(-1.86681 -0.131092 5.18003e-21)
(-1.81382 -0.134964 0)
(-1.75871 -0.138391 0)
(-1.70163 -0.141318 0)
(-1.64275 -0.143689 0)
(-1.58228 -0.145444 0)
(-1.52045 -0.146525 -7.20523e-22)
(-1.45751 -0.146872 0)
(-1.39375 -0.146431 -4.04639e-21)
(-1.32951 -0.145151 -5.12506e-21)
(-1.26511 -0.142989 6.16597e-21)
(-1.20094 -0.139913 0)
(-1.1374 -0.135904 8.11299e-21)
(-1.07491 -0.130961 0)
(-1.01389 -0.1251 9.85052e-21)
(-0.954794 -0.118358 -1.06322e-20)
(-0.898058 -0.110797 -3.24421e-20)
(-0.844116 -0.102501 0)
(-0.793381 -0.0935826 -3.64533e-20)
(-0.746234 -0.084177 -1.19122e-20)
(-0.703005 -0.0744504 0)
(-0.663973 -0.064614 -2.70794e-20)
(-0.629413 -0.0549072 -2.79075e-20)
(-0.599678 -0.0454886 4.32192e-20)
(-0.574988 -0.0362739 0)
(-0.555099 -0.027128 1.49192e-20)
(-0.540559 -0.0185914 1.48165e-20)
(-0.531698 -0.0105086 4.37587e-20)
(-0.526026 -0.00321216 0)
(-0.523795 0.00305835 0)
(-0.524625 0.00878178 0)
(-0.530825 0.0132155 1.42968e-20)
(-0.540813 0.0174495 0)
(-0.551919 0.0212456 0)
(-0.566524 0.0238872 -1.1505e-20)
(-0.581244 0.0266358 -1.09246e-20)
(-0.596536 0.0281619 0)
(-0.613701 0.028539 0)
(-0.631749 0.0286811 -1.71541e-20)
(-0.649937 0.0285521 0)
(-0.667522 0.028088 1.37349e-20)
(-0.683821 0.0271498 1.23233e-20)
(-0.700924 0.0250687 0)
(-0.718054 0.0229736 0)
(-0.731862 0.0210607 -6.75423e-21)
(-0.743649 0.0178307 5.1644e-23)
(-0.754276 0.0142672 1.03275e-23)
(-0.762871 0.0106216 0)
(-0.769008 0.00672596 -5.0946e-21)
(-0.771924 0.00248293 0)
(-0.772494 -0.00272869 0)
(-0.772325 -0.00744148 0)
(-0.767909 -0.0113962 8.95723e-22)
(-0.758102 -0.0160473 0)
(-0.744149 -0.0221469 -1.56311e-21)
(-0.729062 -0.0284575 -1.21611e-21)
(-0.711772 -0.0329792 0)
(-0.688346 -0.0377662 -2.69057e-21)
(-0.66024 -0.0439792 0)
(-0.62963 -0.0491388 0)
(-0.594816 -0.0542141 -1.55253e-20)
(-0.555929 -0.059116 1.22362e-20)
(-0.513196 -0.0639411 0)
(-0.466312 -0.0686011 1.7909e-20)
(-0.415229 -0.0736343 -1.16692e-20)
(-0.362399 -0.0761036 0)
(-0.307401 -0.0784961 0)
(-0.247737 -0.0812922 0)
(-0.186857 -0.0820494 -4.72202e-20)
(-0.125841 -0.0822643 0)
(-0.062779 -0.0825926 -1.87344e-20)
(0.00085962 -0.0823394 0)
(0.0647192 -0.0814149 0)
(0.12827 -0.0798441 0)
(0.191038 -0.0777113 0)
(0.2526 -0.0751272 0)
(0.312608 -0.0722172 0)
(0.370799 -0.0691064 -4.22663e-20)
(0.426999 -0.065901 0)
(0.481107 -0.062669 -2.13313e-20)
(0.533064 -0.0594197 6.19674e-20)
(0.582803 -0.0560754 0)
(0.63017 -0.0524343 0)
(0.67489 -0.0480364 -3.86045e-20)
(0.716282 -0.042081 -3.86961e-20)
(0.75406 -0.0320774 3.74937e-20)
(0.787832 -0.0154159 3.85162e-20)
(0.0214557 -0.273235 -1.58081e-20)
(0.0507271 -0.307013 -1.07281e-20)
(0.0722277 -0.284664 -5.40015e-21)
(0.0906308 -0.255314 -2.35121e-21)
(0.105717 -0.224792 0)
(0.117514 -0.19412 3.15681e-21)
(0.126272 -0.163615 -1.46255e-21)
(0.13215 -0.133441 0)
(0.135204 -0.103703 -1.07071e-21)
(0.135428 -0.0744843 0)
(0.132781 -0.0458597 1.71331e-21)
(0.127166 -0.0179032 0)
(0.118564 0.00925707 7.02918e-22)
(0.106785 0.0355644 1.22702e-21)
(0.091699 0.0609203 -1.0486e-21)
(0.0731072 0.0852609 0)
(0.050735 0.108582 -6.94831e-22)
(0.0243715 0.130963 0)
(-0.00628641 0.152585 0)
(-0.0415521 0.173655 -2.242e-22)
(-0.0816515 0.194313 0)
(-0.127032 0.215014 2.5818e-22)
(-0.177979 0.236539 0)
(-0.23436 0.259537 0)
(-0.295895 0.284107 -2.61469e-22)
(-0.362193 0.3099 -8.09831e-23)
(-0.432861 0.336731 8.94076e-23)
(-0.50709 0.364073 -2.40185e-22)
(-0.583821 0.391025 0)
(-0.662059 0.416312 -8.37073e-22)
(-0.740957 0.438924 0)
(-0.819538 0.458495 -8.58032e-22)
(-0.896523 0.474332 0)
(-0.970836 0.485486 0)
(-1.04195 0.491316 1.78656e-21)
(-1.10986 0.492064 0)
(-1.1745 0.488351 -2.46622e-21)
(-1.23585 0.480679 2.06167e-22)
(-1.29412 0.469587 6.10189e-21)
(-1.34961 0.455677 -7.00546e-21)
(-1.40262 0.439569 0)
(-1.45348 0.421856 0)
(-1.50248 0.403077 -4.67555e-21)
(-1.54984 0.383698 0)
(-1.59576 0.364106 -4.97527e-21)
(-1.64037 0.344608 5.2912e-21)