/*--------------------------------*- C++ -*----------------------------------*\
  =========                 |
  \\      /  F ield         | OpenFOAM: The Open Source CFD Toolbox
   \\    /   O peration     | Website:  https://openfoam.org
    \\  /    A nd           | Version:  9
     \\/     M anipulation  |
\*---------------------------------------------------------------------------*/
FoamFile
{
    format      ascii;
    class       volScalarField;
    location    "0.15";
    object      epsilon;
}
// * * * * * * * * * * * * * * * * * * * * * * * * * * * * * * * * * * * * * //

dimensions      [0 2 -3 0 0 0 0];

internalField   nonuniform List<scalar> 
12225
(
209.944
126.541
82.0556
58.6825
46.0663
38.7222
33.9255
30.4042
27.589
25.2192
23.1623
21.3417
19.7125
18.2565
16.9988
16.1269
16.8588
38.5641
62.2709
55.2512
42.2975
33.3511
27.5952
23.755
21.0565
19.0435
17.4539
16.1395
15.012
14.0138
13.104
12.2537
11.4495
10.7576
10.8732
17.8239
31.7232
33.3568
28.8774
24.3569
20.8213
18.1802
16.1995
14.6772
13.4705
12.4867
11.665
10.9636
10.3519
9.80757
9.32319
8.97261
9.33461
13.5605
21.9527
23.9401
22.2145
19.6902
17.3458
15.3992
13.8358
12.583
11.5687
10.737
10.0474
9.47038
8.9847
8.57685
8.25046
8.08878
8.56082
11.5524
17.8737
19.1325
18.3301
16.7837
15.1487
13.6676
12.4027
11.3449
10.4648
9.7318
9.12083
8.61244
8.19295
7.85618
7.61426
7.55104
8.03302
10.2477
15.9094
16.4348
15.8933
14.8272
13.6189
12.4562
11.4138
10.509
9.73545
9.07914
8.52593
8.06411
7.68593
7.39059
7.1951
7.17703
7.61504
9.27802
14.8917
14.8414
14.3083
13.4647
12.5073
11.5587
10.6806
9.89641
9.21022
8.61751
8.11142
7.68572
7.33695
7.06787
6.89733
6.89292
7.26222
8.51171
14.3459
13.8772
13.2617
12.5046
11.6873
10.8777
10.1172
9.42597
8.81062
8.27114
7.80486
7.40907
7.08312
6.83178
6.67359
6.66487
6.95791
7.88987
14.0495
13.2904
12.5702
11.8291
11.0825
10.3585
9.67901
9.05681
8.49727
8.0015
7.56874
7.19816
6.8907
6.65189
6.49862
6.4762
6.69495
7.38088
13.8883
12.9356
12.1179
11.3595
10.6415
9.96594
9.33922
8.76612
8.24888
7.78787
7.38266
7.03314
6.7408
6.51105
6.3584
6.31821
6.46955
6.96454
13.8011
12.7243
11.8275
11.0392
10.326
9.67444
9.07959
8.53953
8.05291
7.61846
7.23517
6.90277
6.62264
6.39946
6.24505
6.18627
6.27918
6.62637
13.7581
12.6111
11.6606
10.8442
10.1246
9.481
8.902
8.38096
7.91359
7.49691
7.12894
6.80887
6.5375
6.31854
6.16133
6.0863
6.13411
6.37655
13.7335
12.5419
11.5523
10.7112
9.98128
9.3385
8.76747
8.2582
7.80401
7.40029
7.04403
6.73362
6.46914
6.25314
6.09255
6.00234
6.01119
6.16852
13.7188
12.4977
11.4791
10.6162
9.87424
9.22802
8.65999
8.15786
7.71298
7.31928
6.9726
6.67042
6.41186
6.19815
6.03383
5.92892
5.90234
5.98619
13.7108
12.4728
11.4352
10.5563
9.80341
9.15199
8.58368
8.08495
7.64587
7.25917
6.91969
6.62396
6.37008
6.15791
5.9897
5.87133
5.81413
5.83758
13.707
12.4605
11.4127
10.524
9.76366
9.10782
8.53823
8.04091
7.60525
7.22323
6.8889
6.59795
6.34752
6.13621
5.9643
5.83439
5.75226
5.72865
13.7053
12.4554
11.4033
10.5103
9.74646
9.08865
8.51877
8.02278
7.58977
7.21131
6.88089
6.59357
6.34573
6.13491
5.95985
5.82077
5.71967
5.66161
13.7046
12.4537
11.4006
10.507
9.74323
9.08624
8.51803
8.02451
7.59461
7.21962
6.89269
6.60845
6.36268
6.15219
5.97466
5.82874
5.71411
5.63247
13.7044
12.4538
11.4019
10.5104
9.74941
9.09569
8.53108
8.04129
7.61507
7.24351
6.91953
6.6375
6.39285
6.18195
6.00189
5.85045
5.72608
5.62878
13.7053
12.4578
11.4107
10.5249
9.76978
9.12134
8.56105
8.07444
7.65021
7.2795
6.95529
6.67197
6.42502
6.21073
6.02605
5.86856
5.73636
5.62886
13.7095
12.472
11.4373
10.5637
9.81842
9.17672
8.61991
8.13391
7.70794
7.33371
7.00468
6.71561
6.46222
6.24097
6.04887
5.88349
5.74288
5.62633
13.724
12.5164
11.513
10.6644
9.9349
9.29984
8.74227
8.25015
7.8146
7.42878
7.08721
6.78534
6.51933
6.28586
6.08204
5.90541
5.75403
5.62719
13.7682
12.6383
11.7018
10.8951
10.1823
9.5445
8.97195
8.45805
7.99779
7.58682
7.22109
6.8968
6.61038
6.35855
6.13827
5.94692
5.78234
5.64375
13.8914
12.9385
12.1192
11.3614
10.6473
9.97845
9.35951
8.79473
8.28542
7.82985
7.42493
7.06692
6.75185
6.47581
6.23513
6.02653
5.84735
5.6965
14.215
13.617
12.9604
12.2192
11.4426
10.6787
9.95921
9.30039
8.70863
8.18453
7.72388
7.32113
6.97042
6.66611
6.40304
6.17668
5.98338
5.82138
15.0307
15.0665
14.5538
13.7023
12.7246
11.7499
10.8435
10.0315
9.3187
8.70024
8.16822
7.71201
7.32151
6.9878
6.70314
6.46106
6.25641
6.0864
17.0824
18.1155
17.5043
16.2049
14.7504
13.372
12.154
11.1124
10.2341
9.4966
8.87985
8.36456
7.93341
7.57225
7.26971
7.01663
6.80591
6.63331
22.6336
24.8116
23.1205
20.5487
18.0829
15.9803
14.2671
12.8935
11.7936
10.9083
10.191
9.61063
9.13874
8.75378
8.43932
8.18278
7.9746
7.80862
41.1
41.461
35.1159
29.1756
24.5594
21.1017
18.5384
16.6286
15.1846
14.0744
13.2079
12.5338
12.0084
11.5974
11.2761
11.0268
10.8363
10.6962
136.021
97.137
71.672
54.9275
43.8771
36.5354
31.5805
28.1441
25.6817
23.8638
22.4972
21.4834
20.7257
20.1572
19.7364
19.435
19.2317
19.111
21.4579
7.17164
8.21976
8.43067
8.72768
37.8723
8.80551
39.0515
38.1965
8.76764
37.6716
38.5946
8.79834
8.67855
8.64111
8.66534
8.72147
8.84067
38.1336
40.1899
41.8889
43.4306
40.2366
40.6604
41.9899
43.4144
44.7812
46.3237
48.7838
52.0452
55.8852
60.2573
65.169
70.6329
76.6497
83.2047
90.2699
97.8071
105.771
114.114
122.786
131.74
140.928
150.309
159.842
169.492
179.227
189.017
198.834
208.654
218.453
228.207
237.895
247.495
256.983
266.339
275.539
284.559
293.376
301.967
310.309
318.381
326.165
333.647
340.821
347.693
354.281
360.628
366.806
372.492
377.59
382.067
385.876
388.964
391.273
392.745
393.319
392.939
391.548
389.095
385.535
380.829
374.951
367.883
359.626
350.193
339.617
327.954
315.277
301.685
287.295
272.25
256.706
240.84
224.835
208.881
193.167
177.875
163.171
149.202
136.093
123.937
112.802
102.724
93.7129
85.7534
78.8075
72.8205
67.7266
63.4571
59.9509
57.1688
55.1075
53.8006
53.2828
53.4649
53.7948
53.0215
52.4028
12.3521
12.4029
54.4664
54.2255
54.1423
54.2531
54.5349
54.3794
55.3679
12.9027
12.9334
12.8654
56.0048
13.0652
12.8794
12.9459
12.9553
12.9758
13.0779
13.431
57.9517
58.8016
60.2335
13.6071
13.7665
60.2109
60.2593
14.2705
14.2702
14.2798
14.1109
63.3005
63.0233
14.773
14.2932
14.188
65.1112
15.0201
66.9826
65.5731
14.5129
14.3442
13.803
14.4511
15.6489
14.3917
15.4874
15.6776
15.6313
15.5004
15.3101
15.067
14.7755
14.4389
14.059
13.6363
13.1694
12.6546
12.0834
11.4499
10.7923
30.9798
22.1975
19.9422
19.2955
18.8465
19.0305
18.1891
18.6532
18.47
17.66
18.201
18.2583
17.5936
17.7665
18.4064
19.4553
20.9733
23.184
27.1143
30.308
33.5392
37.1242
41.183
45.2457
49.2059
53.1684
57.1484
61.1439
65.1258
68.9947
72.6663
76.0889
79.244
82.1368
84.7884
87.2289
89.4929
91.6154
93.629
95.5626
97.4404
99.2819
101.102
102.911
104.717
106.524
108.332
110.142
111.951
113.757
115.556
117.341
119.109
120.854
122.57
124.251
125.894
127.492
129.041
130.54
131.984
133.375
134.714
136.005
137.259
138.487
139.712
140.96
142.266
143.563
144.715
145.693
146.478
147.05
147.389
147.474
147.283
146.796
145.991
144.849
143.351
141.481
139.227
136.578
133.532
130.088
126.253
122.043
117.478
112.588
107.411
101.993
96.3871
90.6524
84.8532
79.0572
73.3327
67.7469
62.363
57.2385
52.4222
47.9537
43.8612
40.1622
36.8623
33.9571
31.4326
29.2672
27.4343
25.9043
24.6479
23.6384
22.8532
22.2701
21.8589
21.5696
21.2968
20.7689
19.7597
17.4598
17.7324
19.9792
19.9688
19.8408
19.7471
19.658
19.1788
18.6628
16.353
16.4184
16.8115
18.3388
16.3146
16.1691
16.1261
16.049
15.9727
16.0134
16.601
19.0494
18.9791
18.4316
16.1154
16.5504
19.0227
18.0757
14.1389
14.0257
14.4051
15.9171
18.7775
17.9148
13.2943
13.8638
15.3858
17.9197
13.1769
18.4003
17.9085
12.2819
12.0018
12.614
11.689
11.1012
11.8691
10.852
10.3535
10.096
9.90332
9.71589
9.51586
9.29785
9.06018
8.80217
8.52334
8.22336
7.90196
7.56285
7.23349
6.99855
43.6181
29.1816
24.6766
22.4005
20.9899
20.063
19.4082
19.0269
18.8285
18.7919
19.0146
19.4935
20.2411
21.378
22.9822
25.1242
27.8538
31.2011
35.1855
39.2752
43.391
47.4926
51.5066
55.302
58.8168
62.0216
64.8954
67.4265
69.611
71.4546
72.9806
74.2305
75.2574
76.1181
76.8661
77.5483
78.2021
78.8558
79.5282
80.2304
80.9671
81.7381
82.5399
83.3667
84.2119
85.0689
85.9312
86.7935
87.6512
88.501
89.3408
90.1691
90.9857
91.791
92.586
93.3722
94.1516
94.9264
95.6991
96.4725
97.2492
98.0323
98.8245
99.6288
100.448
101.284
102.137
103.008
103.893
104.745
105.533
106.243
106.859
107.367
107.751
107.994
108.079
107.987
107.7
107.199
106.467
105.485
104.239
102.715
100.902
98.7935
96.3864
93.6826
90.6899
87.4219
83.8991
80.1482
76.2029
72.1029
67.8932
63.6235
59.3461
55.1147
50.982
46.9981
43.2083
39.6514
36.3583
33.3507
30.6411
28.2328
26.1201
24.2903
22.7244
21.3992
20.2892
19.3681
18.6106
17.9923
17.4877
17.0616
16.6656
16.2389
15.7518
15.2255
15.0485
15.0777
14.9095
14.7243
14.5521
14.3827
14.1652
13.8997
13.5673
13.4856
13.4685
13.5011
13.2302
13.1392
13.0632
12.986
12.9151
12.8761
12.9278
13.1198
13.0439
12.9
12.6867
12.7231
12.8862
12.6112
12.0487
11.9854
12.0571
12.2947
12.511
12.2208
11.5183
11.6025
11.7827
11.8234
11.0643
11.6582
11.4368
10.5042
10.3086
10.3307
9.86824
9.41964
9.52951
9.01332
8.63269
8.37741
8.17261
7.9828
7.7941
7.60056
7.39894
7.18696
6.96277
6.72488
6.4724
6.20728
5.94408
5.72336
55.6412
34.5993
28.3396
25.3778
23.6494
22.5528
21.859
21.4796
21.3845
21.5833
22.1238
23.0095
24.3024
26.0603
28.333
31.147
34.4699
38.2019
42.1779
46.1656
49.9965
53.5551
56.7629
59.5676
61.9484
63.9132
65.4925
66.7315
67.6841
68.4093
68.9679
69.4179
69.8107
70.1876
70.5788
71.0036
71.4721
71.9865
72.5436
73.1364
73.7556
74.3916
75.0348
75.6768
76.3107
76.9314
77.5357
78.1219
78.6901
79.2416
79.7789
80.3054
80.8248
81.3417
81.8606
82.3862
82.923
83.4755
84.0478
84.6437
85.2665
85.9188
86.6028
87.3196
88.0694
88.8513
89.6627
90.4993
91.3529
92.1996
93.0241
93.8142
94.5574
95.2403
95.8482
96.3653
96.7745
97.0575
97.1955
97.1689
96.9578
96.5425
95.9039
95.0242
93.8872
92.4793
90.79
88.8129
86.5463
83.9938
81.1653
78.077
74.7521
71.2206
67.5192
63.6904
59.7817
55.8441
51.9305
48.0934
44.383
40.8451
37.5189
34.4356
31.6172
29.0762
26.8155
24.8296
23.1052
21.6235
20.3614
19.2939
18.3951
17.6406
17.0033
16.4532
15.9604
15.5015
15.0694
14.6783
14.3793
14.136
13.8875
13.6507
13.4305
13.2226
13.0171
12.8125
12.625
12.4866
12.3709
12.2647
12.1302
12.0271
11.932
11.8426
11.7599
11.6889
11.6372
11.6011
11.5287
11.4515
11.3799
11.3348
11.2939
11.1792
11.0295
10.9691
10.9419
10.936
10.8922
10.7515
10.5488
10.4843
10.4127
10.2691
10.0101
9.96342
9.78177
9.48093
9.28072
9.11072
8.80361
8.47946
8.34571
8.02729
7.74147
7.50961
7.30843
7.12231
6.94329
6.76676
6.58926
6.40774
6.21947
6.02197
5.81351
5.59408
5.37236
5.16715
67.5285
40.2892
32.5675
29.0615
27.0934
25.9011
25.2002
24.8844
24.9259
25.3392
26.113
27.2611
28.8317
30.858
33.3459
36.26
39.5121
42.9648
46.4492
49.7928
52.8576
55.554
57.8399
59.7113
61.1943
62.3375
63.2028
63.8569
64.364
64.7821
65.1597
65.5349
65.9343
66.374
66.861
67.3947
67.9694
68.5759
69.2031
69.8395
70.4741
71.0974
71.7016
72.2809
72.8316
73.3522
73.843
74.3059
74.7442
75.1625
75.5659
75.9604
76.3522
76.7476
77.153
77.5746
78.0181
78.4892
78.9926
79.5328
80.1134
80.7372
81.4063
82.1216
82.8831
83.6896
84.5383
85.4254
86.3445
87.2803
88.222
89.159
90.0803
90.9734
91.8246
92.6187
93.3387
93.9667
94.4831
94.8674
95.0982
95.1535
95.0112
94.6495
94.0472
93.185
92.0455
90.6147
88.8821
86.8423
84.4954
81.8479
78.9133
75.713
72.2757
68.638
64.8436
60.9419
56.9872
53.0362
49.1459
45.3712
41.7622
38.3623
35.2056
32.3165
29.7084
27.3848
25.3394
23.5584
22.0219
20.7061
19.5853
18.6336
17.8211
17.1184
16.5004
15.9485
15.454
15.0149
14.6333
14.2945
13.9819
13.6935
13.4279
13.1819
12.9519
12.7367
12.5408
12.3671
12.2097
12.0642
11.925
11.8002
11.6846
11.5767
11.4757
11.3819
11.2955
11.2138
11.1289
11.0469
10.9694
10.8951
10.82
10.7311
10.6374
10.5617
10.4923
10.4212
10.3317
10.2143
10.0785
9.96109
9.8275
9.66255
9.46863
9.30204
9.10408
8.8754
8.64761
8.40998
8.13777
7.85918
7.646
7.38601
7.14
6.92159
6.72504
6.54427
6.37501
6.21378
6.05718
5.90179
5.74419
5.58113
5.41006
5.22961
5.04492
4.86413
79.3923
46.5165
37.4334
33.4149
31.2215
29.9291
29.2023
28.9125
29.0197
29.4853
30.2928
31.4739
33.0493
35.0176
37.3471
39.9687
42.7777
45.6438
48.4296
51.0123
53.3025
55.2527
56.8556
58.1361
59.1407
59.9277
60.5584
61.0904
61.5729
62.0449
62.534
63.0578
63.6247
64.2354
64.8853
65.5656
66.2655
66.973
67.6764
68.3648
69.029
69.6616
70.2573
70.8131
71.3279
71.8026
72.2398
72.6435
73.0189
73.3723
73.7105
74.0408
74.3706
74.7075
75.0589
75.4319
75.8332
76.269
76.7449
77.2658
77.836
78.4588
79.1366
79.871
80.6623
81.5099
82.4119
83.3652
84.3654
85.4019
86.4659
87.5488
88.6406
89.7302
90.8051
91.8508
92.8515
93.7896
94.6458
95.3993
96.0281
96.5085
96.8162
96.9264
96.8138
96.454
95.8234
94.9004
93.6665
92.1068
90.2113
87.976
85.4041
82.5064
79.3027
75.8218
72.1013
68.188
64.1356
60.0042
55.8571
51.7586
47.7709
43.9509
40.3476
36.9995
33.9336
31.1651
28.6971
26.5228
24.6268
22.9876
21.58
20.3768
19.3451
18.4538
17.6766
16.9935
16.3909
15.8589
15.3888
14.9693
14.5899
14.245
13.9304
13.6423
13.3773
13.1331
12.9094
12.7048
12.5169
12.3432
12.1818
12.033
11.8951
11.7657
11.6434
11.5272
11.4163
11.3092
11.2041
11.1021
11.0027
10.9046
10.8066
10.7058
10.6035
10.5037
10.4025
10.296
10.1784
10.0463
9.90117
9.74957
9.58226
9.39525
9.19009
8.97764
8.74781
8.4999
8.2382
7.96147
7.68227
7.40692
7.15859
6.90641
6.66839
6.45151
6.25532
6.07772
5.9163
5.76826
5.63028
5.49862
5.36933
5.23848
5.10274
4.95965
4.81186
4.6622
90.5349
52.8909
42.5355
38.0353
35.6275
34.2326
33.4556
33.1384
33.1821
33.5415
34.2321
35.2653
36.6389
38.3295
40.2877
42.4373
44.6822
46.9172
49.0429
50.9799
52.6784
54.1212
55.32
56.3075
57.1292
57.834
58.4687
59.0731
59.6781
60.3051
60.9664
61.6668
62.4048
63.1743
63.9661
64.769
65.5713
66.3616
67.1291
67.8647
68.5609
69.2124
69.8157
70.3694
70.8742
71.3323
71.7476
72.1253
72.4717
72.7938
73.0995
73.3967
73.6938
73.999
74.3203
74.6657
75.0423
75.4571
75.9164
76.4255
76.9895
77.6121
78.2965
79.0448
79.8583
80.7371
81.6802
82.6854
83.7496
84.8657
86.027
87.2262
88.455
89.704
90.9621
92.2167
93.4533
94.6556
95.8055
96.883
97.8662
98.7315
99.4533
100.005
100.358
100.485
100.356
99.9431
99.2199
98.1622
96.7495
94.9667
92.8047
90.2625
87.348
84.0795
80.4861
76.6079
72.4956
68.2096
63.8175
59.3918
55.006
50.7316
46.6334
42.7671
39.1761
35.8901
32.9251
30.284
27.9582
25.9303
24.1765
22.6692
21.373
20.2538
19.2827
18.436
17.6954
17.0454
16.4728
15.9647
15.5105
15.1019
14.7329
14.398
14.0927
13.8135
13.5577
13.3229
13.1065
12.9062
12.72
12.5467
12.3853
12.2331
12.088
11.9487
11.8139
11.6826
11.5538
11.4272
11.3023
11.1781
11.054
10.9285
10.8013
10.6721
10.539
10.3995
10.2508
10.0902
9.91702
9.73138
9.53011
9.31133
9.07501
8.82354
8.55521
8.27025
7.9706
7.65763
7.35383
7.06031
6.7841
6.51885
6.27155
6.04642
5.84467
5.66585
5.50848
5.37014
5.24755
5.13674
5.03332
4.93275
4.83093
4.7244
4.6139
4.49915
100.567
58.8714
47.405
42.4877
39.8936
38.4005
37.5557
37.1238
37.0118
37.2041
37.6974
38.4873
39.5593
40.882
42.4049
44.0611
45.7735
47.4646
49.0675
50.5335
51.8375
52.9771
53.9687
54.8414
55.6302
56.37
57.0916
57.8193
58.5697
59.3525
60.1707
61.022
61.9002
62.7964
63.6999
64.5994
65.4835
66.3417
67.1646
67.9443
68.6749
69.352
69.9734
70.5387
71.0494
71.5084
71.9204
72.2909
72.6268
72.9356
73.2255
73.505
73.7827
74.0674
74.3676
74.6916
75.0473
75.4419
75.8822
76.3744
76.9237
77.5347
78.2112
78.956
79.7711
80.6573
81.6147
82.6421
83.7373
84.8962
86.1136
87.3841
88.7013
90.0576
91.444
92.8501
94.2635
95.6704
97.0545
98.3979
99.6802
100.879
101.969
102.924
103.713
104.307
104.672
104.775
104.582
104.061
103.181
101.914
100.239
98.1411
95.6134
92.6607
89.2996
85.5599
81.4848
77.131
72.5666
67.8694
63.1225
58.4109
53.8162
49.4126
45.2623
41.4135
37.8981
34.732
31.9169
29.4417
27.2863
25.4238
23.8173
22.4297
21.229
20.1874
19.2816
18.4916
17.8
17.1911
16.652
16.1718
15.7421
15.3555
15.006
14.6885
14.3987
14.1331
13.8885
13.6618
13.4508
13.2533
13.0678
12.8924
12.7241
12.5611
12.4021
12.2459
12.0916
11.9386
11.7861
11.6336
11.4803
11.3251
11.1672
11.0055
10.8386
10.6646
10.4812
10.2863
10.0781
9.85541
9.61634
9.35932
9.08379
8.79038
8.47911
8.15118
7.80933
7.45675
7.1189
6.79521
6.48821
6.19892
5.93187
5.69064
5.4771
5.29159
5.13319
4.99977
4.88812
4.79415
4.71315
4.64005
4.57003
4.4987
4.4251
4.34672
109.209
64.1285
51.7003
46.4239
43.6708
42.0837
41.1092
40.5371
40.2814
40.3047
40.5893
41.1221
41.8845
42.8469
43.9673
45.1941
46.4708
47.7437
48.9689
50.117
51.1752
52.1457
53.0427
53.8874
54.7033
55.5126
56.3335
57.1792
58.0569
58.9689
59.9128
60.8827
61.8703
62.8653
63.8568
64.8338
65.7856
66.7024
67.5758
68.3988
69.1661
69.8742
70.5213
71.1077
71.6349
72.1062
72.5265
72.9014
73.238
73.5438
73.8271
74.0967
74.3613
74.6299
74.9114
75.2142
75.5465
75.9161
76.33
76.7947
77.3161
77.8991
78.5481
79.2665
80.0569
80.921
81.8596
82.8726
83.9588
85.1162
86.3413
87.6302
88.9787
90.3813
91.8314
93.3211
94.8411
96.3803
97.9256
99.4621
100.972
102.437
103.832
105.133
106.311
107.335
108.17
108.779
109.124
109.164
108.86
108.172
107.066
105.511
103.484
100.974
97.9803
94.5178
90.6174
86.3269
81.71
76.8451
71.8217
66.7358
61.6851
56.7628
52.052
47.6219
43.524
39.7915
36.4394
33.4666
30.8591
28.5929
26.631
24.9343
23.4677
22.1993
21.1013
20.149
19.3205
18.5968
17.9616
17.4011
16.9041
16.4609
16.0635
15.7051
15.3798
15.0829
14.81
14.5574
14.3217
14.1004
13.8913
13.6928
13.5015
13.3151
13.1318
12.9504
12.77
12.5896
12.4086
12.2264
12.0423
11.8553
11.6645
11.4688
11.2669
11.057
10.8372
10.6053
10.3593
10.0975
9.81801
9.51927
9.20053
8.86202
8.5044
8.12964
7.74126
7.34497
6.96667
6.6049
6.26187
5.94104
5.64679
5.38276
5.15128
4.9532
4.78798
4.65379
4.5476
4.46532
4.40208
4.35244
4.31094
4.27231
4.23407
4.19181
116.218
68.4208
55.1768
49.5946
46.679
44.958
43.8902
43.2357
42.8821
42.776
42.8905
43.2082
43.7115
44.3772
45.1749
46.0684
47.0196
47.9928
48.9597
49.9018
50.8118
51.6918
52.5514
53.404
54.2636
55.1429
56.0514
56.9945
57.9738
58.9869
60.0283
61.0903
62.1633
63.2368
64.2999
65.3419
66.3525
67.3226
68.2443
69.1109
69.9177
70.6613
71.3402
71.9546
72.5061
72.998
73.4347
73.8221
74.1669
74.4766
74.7594
75.0238
75.2789
75.5334
75.7963
76.0763
76.3817
76.7202
77.0994
77.5258
78.0056
78.5441
79.146
79.8152
80.5547
81.367
82.2535
83.2151
84.2516
85.3624
86.5454
87.7985
89.1192
90.5042
91.9494
93.4499
94.9995
96.5906
98.214
99.8587
101.511
103.156
104.775
106.345
107.84
109.233
110.488
111.568
112.432
113.034
113.328
113.264
112.794
111.872
110.459
108.521
106.041
103.013
99.4499
95.3846
90.8705
85.9809
80.8063
75.4504
70.0242
64.6391
59.4001
54.3993
49.7112
45.3898
41.4678
37.9576
34.8548
32.141
29.7812
27.7356
25.9669
24.4398
23.1221
21.9843
21.0001
20.1465
19.4031
18.753
18.1815
17.6765
17.2276
16.8258
16.4637
16.1348
15.8337
15.5555
15.2961
15.0519
14.8198
14.599
14.3853
14.1759
13.9688
13.7625
13.5558
13.348
13.1383
12.926
12.7106
12.4912
12.2669
12.0369
11.7998
11.554
11.2977
11.0285
10.7443
10.443
10.1225
9.7811
9.41771
9.03247
8.62636
8.2019
7.76301
7.32021
6.89623
6.4903
6.1057
5.74715
5.41947
5.12662
4.87128
4.65466
4.47655
4.33542
4.22848
4.15184
4.10063
4.06925
4.05178
4.04213
4.03641
4.02863
121.44
71.6102
57.6768
51.7804
48.7225
46.9509
45.8636
45.1898
44.7982
44.6238
44.6328
44.806
45.1281
45.5832
46.1517
46.811
47.5372
48.308
49.1056
49.9182
50.7409
51.5744
52.4237
53.2962
54.1991
55.1385
56.1177
57.1375
58.1956
59.287
60.4045
61.5391
62.6808
63.8189
64.9427
66.0417
67.1059
68.1265
69.0958
70.0074
70.8565
71.6399
72.3557
73.004
73.5863
74.1053
74.5654
74.9718
75.3311
75.6505
75.9378
76.2014
76.4502
76.6928
76.938
77.1945
77.4705
77.774
78.1123
78.4921
78.9198
79.4006
79.9395
80.5406
81.2073
81.9424
82.748
83.6256
84.5759
85.5992
86.695
87.8622
89.0996
90.4063
91.7803
93.2197
94.7215
96.2819
97.8959
99.5571
101.257
102.986
104.729
106.471
108.191
109.865
111.461
112.946
114.277
115.409
116.288
116.86
117.064
116.841
116.132
114.886
113.06
110.625
107.571
103.909
99.6771
94.935
89.7683
84.2827
78.5984
72.8428
67.1419
61.612
56.353
51.4431
46.9364
42.8632
39.232
36.0338
33.2379
30.8064
28.7009
26.8836
25.3183
23.9715
22.812
21.8124
20.9481
20.1983
19.5449
18.9725
18.468
18.0204
17.6199
17.2587
16.9295
16.6263
16.3439
16.0779
15.8243
15.5819
15.3466
15.1151
14.8849
14.6543
14.422
14.1871
13.9488
13.7067
13.4602
13.2086
12.9514
12.6876
12.4161
12.1355
11.8437
11.5386
11.2177
10.8786
10.5187
10.1359
9.72884
9.29727
8.84228
8.36676
7.87494
7.384
6.91
6.4548
6.02334
5.62146
5.25465
4.92731
4.64241
4.40142
4.20437
4.04998
3.93576
3.85812
3.81244
3.79317
3.79412
3.80859
3.83138
3.85512
124.531
73.402
59.0103
52.9643
49.8765
48.1276
47.0818
46.4473
46.0791
45.9023
45.8777
45.9842
46.2088
46.541
46.9698
47.4831
48.0679
48.712
49.405
50.1399
50.9132
51.7246
52.5761
53.4706
54.411
55.3987
56.4334
57.5128
58.6322
59.7849
60.9628
62.1563
63.3552
64.5487
65.7261
66.8772
67.9921
69.0622
70.0796
71.0381
71.9326
72.7597
73.5173
74.2051
74.8239
75.3763
75.866
76.2979
76.678
77.0129
77.3104
77.5784
77.8253
78.0596
78.29
78.5248
78.7722
79.0399
79.3351
79.6646
80.0343
80.4498
80.9158
81.4364
82.0152
82.655
83.3584
84.1271
84.9626
85.866
86.8378
87.8774
88.985
90.1608
91.4054
92.719
94.1019
95.5537
97.0737
98.6603
100.31
102.02
103.781
105.585
107.419
109.263
111.095
112.886
114.597
116.186
117.599
118.777
119.652
120.154
120.207
119.739
118.684
116.986
114.607
111.531
107.77
103.365
98.3895
92.9435
87.1508
81.1507
75.088
69.1027
63.3213
57.8491
52.765
48.1206
43.9417
40.2321
36.9691
34.1191
31.6448
29.5072
27.6675
26.088
24.7333
23.571
22.5725
21.7124
20.9689
20.3231
19.759
19.2626
18.8223
18.4279
18.0707
17.7431
17.4388
17.1523
16.8789
16.6155
16.3596
16.107
15.8546
15.6005
15.3433
15.0819
14.8157
14.5443
14.2673
13.9843
13.6949
13.3984
13.0939
12.7801
12.4552
12.1167
11.7621
11.3884
10.9927
10.572
10.1245
9.64935
9.14734
8.62146
8.07749
7.53738
7.01023
6.50156
6.0184
5.56797
5.15664
4.78936
4.46942
4.19845
3.97661
3.80279
3.67476
3.5893
3.54221
3.52823
3.54115
3.57389
3.62011
3.67128
125.672
74.0194
59.4315
53.3421
50.287
48.6094
47.6511
47.1048
46.8139
46.6951
46.7036
46.8157
47.0188
47.306
47.6723
48.113
48.6232
49.1981
49.8335
50.5261
51.2743
52.0776
52.9364
53.8511
54.8218
55.8473
56.925
58.0506
59.2179
60.4196
61.6466
62.8894
64.1373
65.3799
66.6064
67.8066
68.9708
70.0902
71.157
72.1646
73.1078
73.9827
74.7869
75.5195
76.1808
76.7729
77.2987
77.7627
78.1703
78.5277
78.842
79.1209
79.3721
79.6041
79.8249
80.0428
80.2656
80.5007
80.7552
81.0355
81.3473
81.6959
82.0858
82.5209
83.0045
83.5395
84.1282
84.7728
85.4749
86.236
87.0578
87.9397
88.8824
89.8872
90.9562
92.0917
93.2962
94.5729
95.9245
97.3538
98.8634
100.454
102.127
103.879
105.705
107.597
109.539
111.511
113.483
115.419
117.27
118.978
120.472
121.675
122.499
122.854
122.649
121.8
120.238
117.915
114.811
110.939
106.351
101.133
95.407
89.3173
83.0239
76.6886
70.4636
64.4837
58.8547
53.6525
48.9237
44.689
40.9374
37.6432
34.7727
32.2878
30.1481
28.3131
26.7432
25.4015
24.2549
23.2735
22.4313
21.7057
21.0773
20.5292
20.0471
19.6187
19.2333
18.8818
18.5564
18.2505
17.9583
17.6755
17.4003
17.1275
16.8539
16.5772
16.2958
16.0086
15.7152
15.4151
15.1083
14.7946
14.474
14.146
13.8102
13.4653
13.1097
12.7411
12.3565
11.9528
11.5262
11.0731
10.5905
10.0769
9.53228
8.95901
8.36884
7.77878
7.19683
6.63173
6.09286
5.58917
5.12827
4.71586
4.35562
4.04935
3.79722
3.59813
3.45004
3.35009
3.29458
3.27876
3.29666
3.34106
3.40474
3.47824
125.419
73.7781
59.1552
53.0926
50.1127
48.5408
47.7041
47.2838
47.1134
47.1017
47.198
47.375
47.6192
47.9248
48.2904
48.7163
49.2033
49.7525
50.3644
51.0396
51.7785
52.5817
53.4493
54.3808
55.3748
56.4289
57.5391
58.7
59.905
61.1459
62.4136
63.6982
64.9893
66.2764
67.5487
68.7961
70.0089
71.1781
72.2957
73.355
74.3502
75.277
76.1326
76.9154
77.6252
78.2632
78.8321
79.3354
79.7779
80.1655
80.5044
80.8019
81.0654
81.3027
81.5217
81.7301
81.9354
82.1447
82.3647
82.6014
82.8603
83.146
83.4628
83.814
84.2027
84.6314
85.1021
85.6166
86.1766
86.7838
87.4409
88.1469
88.9027
89.7102
90.5722
91.4924
92.4754
93.5263
94.6512
95.8564
97.149
98.5356
100.023
101.616
103.318
105.13
107.047
109.06
111.152
113.294
115.45
117.567
119.579
121.406
122.955
124.12
124.792
124.859
124.218
122.786
120.503
117.349
113.344
108.552
103.083
97.0805
90.7134
84.1627
77.6021
71.199
65.0862
59.3645
54.1047
49.3477
45.0989
41.344
38.0566
35.2013
32.7384
30.6268
28.8228
27.2851
25.9763
24.8623
23.9124
23.1002
22.4024
21.799
21.2729
20.8092
20.3953
20.0202
19.6744
19.3501
19.0404
18.7396
18.446
18.1541
17.8601
17.5616
17.2568
16.9446
16.6244
16.2963
15.9602
15.6165
15.2655
14.9072
14.5414
14.1673
13.7836
13.3881
12.9778
12.5489
12.0973
11.6183
11.1078
10.5631
9.98263
9.37059
8.74045
8.10216
7.46599
6.84335
6.2461
5.68534
5.17036
4.70801
4.30257
3.95602
3.66849
3.43879
3.26491
3.14424
3.0736
3.04884
3.06452
3.11352
3.18804
3.27793
124.005
72.8598
58.3501
52.3792
49.5113
48.0724
47.383
47.1161
47.0975
47.2285
47.4526
47.7384
48.0699
48.4412
48.8523
49.3064
49.8084
50.3636
50.9767
51.6517
52.392
53.1995
54.0753
55.0192
56.0297
57.1039
58.2374
59.4244
60.658
61.9299
63.231
64.5514
65.8807
67.2083
68.5238
69.8169
71.0777
72.2972
73.4671
74.5803
75.6307
76.6134
77.525
78.3633
79.1275
79.8181
80.4369
80.987
81.4724
81.8982
82.2702
82.5951
82.8798
83.1316
83.3579
83.5661
83.7631
83.9557
84.1502
84.3521
84.5663
84.7972
85.0484
85.3226
85.6225
85.9497
86.306
86.6926
87.1108
87.5622
88.0494
88.5725
89.1316
89.7287
90.367
91.051
91.7862
92.5795
93.4388
94.3732
95.3931
96.5094
97.7339
99.0784
100.554
102.171
103.935
105.85
107.91
110.102
112.403
114.773
117.156
119.479
121.649
123.554
125.068
126.059
126.39
125.94
124.609
122.332
119.09
114.917
109.899
104.171
97.9054
91.2993
84.5353
77.8235
71.3188
65.1445
59.3968
54.1407
49.4019
45.1823
41.4661
38.223
35.4164
33.0101
30.9545
29.2047
27.7199
26.4619
25.3951
24.4889
23.7162
23.0536
22.4808
21.9803
21.5371
21.1382
20.7726
20.4307
20.1046
19.7872
19.4761
19.1659
18.8525
18.5329
18.2053
17.8686
17.5223
17.1664
16.8016
16.4283
16.0474
15.6595
15.2649
14.8632
14.4535
14.034
13.6016
13.1526
12.6819
12.1843
11.6537
11.0865
10.4808
9.84251
9.17798
8.49647
7.80952
7.13065
6.47427
5.85404
5.28144
4.76497
4.30988
3.91854
3.59103
3.32598
3.12122
2.97428
2.88237
2.842
2.84837
2.89479
2.97313
3.07284
121.529
71.3708
57.1318
51.3247
48.6103
47.3333
46.8152
46.7251
46.8827
47.1832
47.5645
47.9907
48.443
48.914
49.4037
49.9171
50.4616
51.0456
51.6774
52.3643
53.1125
53.9264
54.8087
55.7603
56.7806
57.8669
59.0153
60.2201
61.4745
62.7702
64.0985
65.4494
66.8128
68.1781
69.535
70.873
72.1822
73.4535
74.6782
75.8487
76.9585
78.0022
78.9757
79.876
80.7018
81.4526
82.1297
82.7351
83.2724
83.7458
84.1606
84.5226
84.8383
85.1145
85.358
85.5757
85.7743
85.9598
86.1383
86.3146
86.4933
86.678
86.8718
87.077
87.2951
87.5275
87.7749
88.038
88.3175
88.6143
88.9299
89.2667
89.6243
90.0043
90.4101
90.8464
91.319
91.8357
92.4055
93.0391
93.7489
94.5488
95.4545
96.4826
97.6507
98.9764
100.476
102.164
104.05
106.136
108.415
110.865
113.446
116.1
118.742
121.264
123.535
125.403
126.707
127.288
127.002
125.734
123.42
120.05
115.679
110.423
104.444
97.9711
91.1936
84.3162
77.5231
70.971
64.7856
59.0584
53.8411
49.1571
45.0053
41.3657
38.2059
35.4864
33.1598
31.1778
29.5
28.0841
26.8886
25.8787
25.0238
24.2964
23.6726
23.1324
22.6581
22.2344
21.8484
21.4891
21.147
20.8142
20.4855
20.1572
19.8245
19.4839
19.1335
18.7721
18.3994
18.0156
17.6216
17.2184
16.8074
16.3898
15.9664
15.5376
15.1031
14.6615
14.2098
13.7445
13.2599
12.7502
12.2072
11.629
11.0115
10.3555
9.66513
8.94824
8.21666
7.48543
6.7713
6.09079
5.45816
4.88416
4.37553
3.93533
3.56375
3.25917
3.01918
2.8412
2.7227
2.66074
2.65126
2.68815
2.76328
2.86599
118.398
69.608
55.7655
50.1768
47.6414
46.5371
46.1935
46.2793
46.6112
47.0801
47.6198
48.1907
48.7713
49.3523
49.9332
50.5194
51.1195
51.7441
52.4039
53.109
53.868
54.6879
55.5734
56.5272
57.5497
58.6396
59.7936
61.0066
62.2723
63.583
64.93
66.3038
67.6945
69.0916
70.4847
71.8634
73.2178
74.5384
75.8162
77.0433
78.2127
79.3185
80.3557
81.3208
82.2117
83.0272
83.7676
84.4344
85.0302
85.5587
86.0242
86.4322
86.7883
87.0988
87.37
87.6083
87.8199
88.0105
88.1854
88.3492
88.5059
88.6586
88.8096
88.9606
89.1125
89.2659
89.4205
89.5764
89.7332
89.8907
90.0493
90.213
90.3812
90.5556
90.7391
90.9362
91.1531
91.3972
91.678
92.0067
92.3965
92.863
93.4237
94.0982
94.9084
95.8775
97.0296
98.3887
99.9766
101.811
103.901
106.247
108.829
111.609
114.521
117.471
120.332
122.946
125.135
126.707
127.475
127.276
125.989
123.557
119.986
115.397
109.932
103.783
97.1535
90.2611
83.3126
76.4933
69.9582
63.8262
58.1784
53.0632
48.4972
44.4724
40.9634
37.9327
35.335
33.1224
31.2486
29.6678
28.336
27.2156
26.2739
25.4778
24.8004
24.2189
23.7125
23.2638
22.8579
22.4819
22.125
21.778
21.4337
21.0888
20.738
20.3778
20.0058
19.6209
19.2228
18.812
18.3895
17.9572
17.5167
17.07
16.6186
16.1636
15.7056
15.2438
14.7753
14.2974
13.8035
13.2882
12.7446
12.1658
11.5463
10.8833
10.1781
9.43663
8.66987
7.89343
7.126
6.387
5.69394
5.06052
4.4956
4.00342
3.58451
3.23708
2.95835
2.7455
2.59603
2.50743
2.47628
2.49718
2.56224
2.66096
114.972
67.8169
54.4735
49.1472
46.8051
45.8703
45.6872
45.9288
46.4118
47.0259
47.7025
48.3998
49.0943
49.7754
50.4415
51.0977
51.7531
52.4193
53.1086
53.8328
54.6026
55.4271
56.3127
57.264
58.2829
59.3694
60.5212
61.7342
63.0027
64.3198
65.6771
67.0656
68.4755
69.8966
71.3186
72.731
74.1239
75.4875
76.8127
78.0911
79.3153
80.4787
81.576
82.6029
83.5564
84.4347
85.2373
85.9651
86.6197
87.2041
87.7222
88.1785
88.5783
88.927
89.2307
89.4952
89.7261
89.9289
90.1084
90.2689
90.4137
90.5456
90.6665
90.7774
90.8787
90.9702
91.0512
91.1207
91.1776
91.2207
91.2494
91.2677
91.2755
91.2742
91.2665
91.2568
91.2505
91.2551
91.2797
91.3353
91.4352
91.5951
91.8331
92.1702
92.63
93.2389
94.0254
95.02
96.2534
97.7549
99.5497
101.654
104.073
106.789
109.761
112.915
116.14
119.285
122.165
124.569
126.276
127.074
126.791
125.322
122.653
118.844
114.013
108.328
101.995
95.2364
88.2759
81.322
74.5552
68.121
62.1292
56.6529
51.728
47.3606