/*--------------------------------*- C++ -*----------------------------------*\
  =========                 |
  \\      /  F ield         | OpenFOAM: The Open Source CFD Toolbox
   \\    /   O peration     | Website:  https://openfoam.org
    \\  /    A nd           | Version:  9
     \\/     M anipulation  |
\*---------------------------------------------------------------------------*/
FoamFile
{
    format      ascii;
    class       volScalarField;
    location    "0.15";
    object      k;
}
// * * * * * * * * * * * * * * * * * * * * * * * * * * * * * * * * * * * * * //

dimensions      [0 2 -2 0 0 0 0];

internalField   nonuniform List<scalar> 
12225
(
0.266786
0.160805
0.104279
0.0745822
0.0585549
0.0492273
0.0431376
0.0386695
0.0350996
0.0320965
0.0294911
0.0271858
0.0251222
0.023276
0.0216746
0.0205373
0.0212902
0.0469611
0.335913
0.250839
0.197093
0.165086
0.144899
0.130974
0.120491
0.112033
0.104881
0.0986441
0.0930802
0.0880237
0.0833634
0.0790469
0.0751293
0.0721359
0.0733206
0.0985227
0.345552
0.286195
0.239914
0.207107
0.183755
0.166543
0.15325
0.142508
0.13351
0.125776
0.119003
0.112992
0.107611
0.102809
0.0986817
0.0959554
0.0982846
0.121645
0.350298
0.305144
0.265677
0.234496
0.210389
0.1916
0.17662
0.164342
0.154023
0.145177
0.137483
0.130729
0.124783
0.11961
0.115365
0.112892
0.115683
0.135844
0.353267
0.316704
0.282718
0.253952
0.230367
0.211135
0.195315
0.1821
0.170881
0.161222
0.152822
0.145476
0.139065
0.133575
0.12921
0.126843
0.129542
0.146245
0.355268
0.324305
0.294623
0.268349
0.245873
0.226877
0.210814
0.197131
0.185365
0.175157
0.166244
0.158446
0.151663
0.145904
0.141398
0.138983
0.141215
0.154642
0.356663
0.329537
0.303219
0.279248
0.258104
0.239728
0.223822
0.210027
0.198004
0.187477
0.178229
0.170113
0.163051
0.157071
0.15241
0.149824
0.151375
0.161847
0.357651
0.333235
0.309545
0.287599
0.267822
0.250262
0.23477
0.221119
0.209071
0.19842
0.188999
0.180692
0.173444
0.167297
0.162479
0.159646
0.160424
0.168305
0.358353
0.335879
0.314238
0.294026
0.275552
0.258888
0.243962
0.230633
0.218737
0.208125
0.198672
0.19029
0.182947
0.176692
0.171735
0.168627
0.168628
0.174285
0.35885
0.337772
0.317721
0.298964
0.281678
0.265914
0.251634
0.238743
0.227129
0.216684
0.207318
0.198968
0.191617
0.185318
0.180256
0.176882
0.176161
0.179951
0.359198
0.33912
0.320287
0.302728
0.286492
0.271588
0.257978
0.245593
0.234351
0.224172
0.214991
0.206765
0.199487
0.193209
0.188089
0.18449
0.183141
0.185396
0.359418
0.339988
0.322
0.305326
0.289919
0.275738
0.262733
0.250838
0.239988
0.230118
0.221177
0.213135
0.20599
0.199789
0.194667
0.190913
0.18909
0.190211
0.359575
0.340618
0.323279
0.307327
0.292632
0.279107
0.266678
0.255279
0.244847
0.235328
0.22668
0.218879
0.211926
0.205863
0.200798
0.196957
0.194767
0.194975
0.359696
0.34111
0.324312
0.308997
0.294968
0.282089
0.270261
0.259403
0.249452
0.240355
0.232075
0.224592
0.217905
0.212046
0.207097
0.203226
0.200736
0.200155
0.35978
0.341463
0.325081
0.310288
0.29684
0.284559
0.273318
0.263018
0.253587
0.244969
0.237125
0.230033
0.223687
0.218107
0.213347
0.209521
0.206831
0.205628
0.359834
0.341692
0.325599
0.311197
0.298213
0.286443
0.275733
0.265967
0.257059
0.248944
0.241578
0.23493
0.228987
0.223753
0.219256
0.215561
0.212789
0.211159
0.359862
0.341822
0.325909
0.311768
0.299118
0.287739
0.277463
0.268158
0.259725
0.252089
0.245195
0.239002
0.233486
0.228634
0.22445
0.220961
0.218224
0.216361
0.359872
0.34188
0.326061
0.312068
0.299622
0.2885
0.278525
0.269559
0.261493
0.254243
0.247745
0.241948
0.236815
0.232319
0.228442
0.225183
0.222553
0.220608
0.359866
0.341875
0.326074
0.312121
0.299741
0.288713
0.278862
0.270049
0.262163
0.255117
0.24884
0.243275
0.238378
0.234108
0.230436
0.227338
0.224798
0.222829
0.359837
0.341773
0.325863
0.311771
0.29923
0.288032
0.278014
0.269047
0.261026
0.253868
0.247505
0.241877
0.236936
0.232638
0.228945
0.225824
0.223246
0.221204
0.359775
0.341532
0.325349
0.310908
0.297972
0.286363
0.275942
0.266595
0.25823
0.250766
0.244136
0.238281
0.233146
0.228684
0.22485
0.221605
0.218913
0.216757
0.359645
0.341011
0.324255
0.309129
0.295468
0.283151
0.272071
0.262135
0.253255
0.245351
0.238348
0.23218
0.226784
0.222103
0.218087
0.214686
0.211861
0.209583
0.359391
0.339996
0.322201
0.305926
0.291145
0.277815
0.26586
0.255189
0.245706
0.237314
0.229923
0.223446
0.217808
0.212937
0.208769
0.205248
0.202324
0.199963
0.358932
0.338181
0.318688
0.300704
0.284384
0.269762
0.25679
0.245345
0.23528
0.226463
0.218767
0.212081
0.206302
0.201341
0.19712
0.193569
0.19063
0.188261
0.358157
0.335119
0.31304
0.292707
0.274479
0.258412
0.244395
0.232248
0.221759
0.212698
0.204888
0.198177
0.192434
0.187545
0.183417
0.179969
0.177131
0.174856
0.356912
0.330122
0.304259
0.280891
0.260495
0.243013
0.228156
0.215572
0.204935
0.195942
0.188308
0.181836
0.176361
0.17175
0.167893
0.164699
0.162095
0.160027
0.354974
0.321946
0.290662
0.263606
0.241042
0.222495
0.207295
0.194806
0.184502
0.175986
0.168904
0.16299
0.158053
0.153945
0.150549
0.147769
0.145531
0.143778
0.351987
0.307969
0.268979
0.237891
0.213739
0.195024
0.180401
0.168826
0.159545
0.152036
0.145946
0.140945
0.136833
0.133461
0.130717
0.128509
0.126768
0.125438
0.345988
0.280874
0.231817
0.197526
0.173483
0.156262
0.143589
0.133998
0.126564
0.120705
0.116064
0.112354
0.109377
0.107002
0.105126
0.103673
0.102582
0.101811
0.300309
0.21446
0.158239
0.121268
0.0968648
0.0806479
0.0696995
0.0621026
0.0566544
0.0526264
0.0495885
0.0473266
0.0456236
0.0443344
0.0433672
0.0426597
0.0421665
0.0418557
0.0719806
0.110795
0.127609
0.135852
0.142131
0.137544
0.14374
0.141839
0.138688
0.141285
0.138074
0.137358
0.139156
0.139059
0.138747
0.139068
0.140243
0.142107
0.1372
0.143515
0.148799
0.152447
0.146727
0.145949
0.148241
0.151327
0.154421
0.157756
0.162735
0.169654
0.177706
0.186698
0.196571
0.207293
0.218811
0.231046
0.243899
0.257262
0.271025
0.285081
0.299333
0.313694
0.328089
0.342455
0.356738
0.370894
0.384888
0.398691
0.412278
0.425629
0.438728
0.451559
0.464109
0.476362
0.488307
0.499929
0.511215
0.522149
0.532717
0.542905
0.552698
0.562083
0.571051
0.579597
0.587722
0.595438
0.602772
0.609772
0.616514
0.622811
0.628442
0.633385
0.637604
0.641053
0.643679
0.645426
0.646236
0.646049
0.644806
0.642447
0.638915
0.634156
0.628121
0.620768
0.612063
0.601984
0.59052
0.577679
0.563485
0.547983
0.53124
0.513347
0.494422
0.474605
0.454062
0.432979
0.411561
0.390026
0.368601
0.347511
0.326978
0.307208
0.288391
0.27069
0.25424
0.239144
0.225471
0.213256
0.202505
0.193206
0.18534
0.178903
0.173897
0.170293
0.167929
0.166334
0.164999
0.163912
0.165131
0.171937
0.171253
0.169216
0.168458
0.167933
0.167481
0.166662
0.164524
0.169096
0.171143
0.170347
0.16855
0.16551
0.170354
0.169136
0.169286
0.169237
0.16964
0.170798
0.172326
0.170199
0.171188
0.17245
0.173698
0.174144
0.171539
0.173806
0.183898
0.183509
0.181628
0.175535
0.171691
0.17301
0.185376
0.180103
0.173986
0.170318
0.184106
0.168027
0.165333
0.177954
0.175458
0.168873
0.17423
0.183782
0.172711
0.179972
0.181604
0.180432
0.178116
0.175135
0.171624
0.16764
0.163216
0.158368
0.153096
0.147386
0.141197
0.134443
0.127013
0.119355
0.102709
0.152086
0.182148
0.202547
0.215896
0.22445
0.230529
0.232527
0.234521
0.235028
0.232779
0.231239
0.232102
0.232995
0.235776
0.241804
0.251779
0.265454
0.281627
0.29934
0.319372
0.339812
0.36253
0.380713
0.397239
0.412901
0.427798
0.44201
0.455561
0.468438
0.480659
0.492248
0.503284
0.513894
0.524231
0.534446
0.544685
0.555071
0.565703
0.576655
0.587976
0.599694
0.611816
0.624339
0.637245
0.650513
0.664118
0.678031
0.692226
0.706677
0.721362
0.736256
0.751342
0.766597
0.782005
0.797544
0.813195
0.828934
0.844736
0.860573
0.87641
0.892212
0.907935
0.923532
0.938949
0.954127
0.969001
0.983507
0.997571
1.01097
1.02381
1.03601
1.04748
1.0581
1.06775
1.07631
1.08363
1.08956
1.09397
1.09669
1.09756
1.09644
1.09318
1.08762
1.07964
1.06914
1.056
1.04018
1.02164
1.0004
0.976489
0.950026
0.92116
0.890097
0.857098
0.822473
0.786582
0.749818
0.712603
0.675373
0.638562
0.602589
0.567841
0.534663
0.503347
0.474127
0.447172
0.422591
0.400433
0.380692
0.363312
0.348189
0.335168
0.324016
0.314385
0.305764
0.297919
0.291641
0.287098
0.283689
0.27921
0.272886
0.269664
0.267169
0.265055
0.263364
0.263136
0.261227
0.262231
0.261235
0.260179
0.258307
0.258683
0.258583
0.257964
0.257415
0.256967
0.256409
0.255136
0.252691
0.2526
0.25281
0.255047
0.254569
0.252406
0.253304
0.255435
0.25504
0.254041
0.253
0.249678
0.249847
0.251842
0.249997
0.248331
0.244677
0.245872
0.240276
0.237408
0.237316
0.23374
0.229535
0.228261
0.228898
0.223445
0.222567
0.220609
0.217557
0.213866
0.209746
0.205262
0.200427
0.195234
0.189668
0.183704
0.177307
0.170424
0.163004
0.15488
0.146753
0.145154
0.200654
0.235917
0.2595
0.275658
0.286823
0.294509
0.29963
0.303225
0.305873
0.30824
0.311487
0.315916
0.322317
0.331862
0.345487
0.363517
0.385578
0.410792
0.43668
0.461906
0.485509
0.507148
0.526361
0.543454
0.558662
0.57222
0.584414
0.59555
0.605946
0.615922
0.62579
0.635845
0.646344
0.65749
0.669425
0.682226
0.69591
0.710448
0.725767
0.74177
0.758342
0.775365
0.792719
0.810297
0.828005
0.845765
0.863516
0.881216
0.898836
0.916362
0.933789
0.951124
0.968376
0.98556
1.00269
1.01979
1.03686
1.05392
1.07097
1.08802
1.10506
1.12206
1.13903
1.15592
1.1727
1.18934
1.20578
1.22194
1.23775
1.25316
1.26806
1.28232
1.29583
1.30843
1.31996
1.33025
1.33911
1.34637
1.35182
1.35524
1.35645
1.35523
1.35139
1.34473
1.33508
1.3223
1.30626
1.28688
1.26413
1.23802
1.20861
1.17604
1.14052
1.1023
1.06174
1.01924
0.97526
0.930302
0.884906
0.839621
0.79499
0.751526
0.709696
0.669908
0.63249
0.597694
0.565685
0.53655
0.510299
0.486875
0.466163
0.447994
0.432168
0.418339
0.406103
0.395249
0.385819
0.37778
0.370774
0.3642
0.357842
0.352832
0.34855
0.344821
0.341623
0.339031
0.336238
0.334373
0.332208
0.330102
0.328065
0.326678
0.325298
0.323845
0.322489
0.321219
0.319933
0.318471
0.316771
0.315741
0.314986
0.314952
0.313962
0.312534
0.311922
0.311455
0.310368
0.309006
0.307511
0.30512
0.303762
0.302632
0.300598
0.298038
0.294418
0.292035
0.287452
0.283601
0.280459
0.275834
0.271021
0.266686
0.262839
0.25813
0.253583
0.249179
0.244565
0.23972
0.234675
0.229429
0.223956
0.218221
0.212178
0.205778
0.198961
0.191658
0.183798
0.175333
0.166319
0.18581
0.247026
0.286914
0.313622
0.332069
0.344999
0.354164
0.360839
0.366111
0.370984
0.376514
0.382935
0.391211
0.402289
0.416963
0.435644
0.45808
0.483347
0.510032
0.536477
0.561364
0.583895
0.603799
0.621153
0.636254
0.64952
0.661448
0.672561
0.68336
0.694294
0.705744
0.718007
0.731286
0.745697
0.761263
0.777938
0.795614
0.814141
0.833343
0.853037
0.873038
0.893178
0.913307
0.933299
0.953056
0.97251
0.991614
1.01035
1.02871
1.04672
1.0644
1.0818
1.09896
1.11592
1.13275
1.14949
1.16619
1.18289
1.19963
1.21644
1.23335
1.25036
1.2675
1.28474
1.30209
1.31952
1.337
1.35447
1.37189
1.38918
1.40625
1.42299
1.43926
1.45494
1.46986
1.48384
1.49671
1.50825
1.51825
1.52649
1.53273
1.53673
1.53825
1.53704
1.53287
1.52551
1.51477
1.50048
1.48247
1.46068
1.43503
1.40557
1.37235
1.33556
1.29542
1.25226
1.20647
1.15853
1.10899
1.05843
1.00748
0.956767
0.906915
0.858503
0.812047
0.767986
0.726666
0.688333
0.653136
0.62113
0.592288
0.566513
0.543651
0.523513
0.505751
0.490018
0.476033
0.463659
0.45279
0.4432
0.434613
0.426878
0.420121
0.414133
0.408804
0.404049
0.399797
0.395836
0.39235
0.389022
0.385907
0.383016
0.380446
0.378021
0.3757
0.373499
0.371393
0.369339
0.367287
0.365244
0.363412
0.361721
0.360213
0.358425
0.356561
0.354883
0.353164
0.351211
0.349078
0.346782
0.344173
0.341691
0.339042
0.335933
0.33237
0.32832
0.324289
0.319338
0.314361
0.309319
0.303509
0.297383
0.291536
0.28583
0.280008
0.274121
0.268379
0.262669
0.256952
0.251216
0.245432
0.239553
0.233523
0.227276
0.220737
0.213829
0.206468
0.19857
0.190122
0.181104
0.226056
0.295044
0.339646
0.369418
0.390066
0.404637
0.415173
0.423191
0.429977
0.436725
0.443938
0.452283
0.462761
0.476146
0.492879
0.51293
0.53573
0.560254
0.585226
0.609403
0.631839
0.652031
0.669911
0.685738
0.699962
0.713136
0.72584
0.738617
0.751925
0.766113
0.781417
0.79796
0.815761
0.834758
0.854817
0.875761
0.897382
0.919462
0.941784
0.964146
0.986366
1.00829
1.0298
1.05079
1.07122
1.09103
1.11023
1.12884
1.14688
1.16441
1.18149
1.19819
1.21457
1.23073
1.24673
1.26265
1.27856
1.29452
1.31059
1.32683
1.34328
1.35996
1.3769
1.3941
1.41157
1.42929
1.44724
1.46536
1.48361
1.50193
1.52023
1.5384
1.5563
1.5738
1.59073
1.60692
1.62218
1.63629
1.64903
1.66016
1.66942
1.67656
1.68129
1.68336
1.68248
1.67839
1.67084
1.6596
1.64447
1.62528
1.60191
1.57432
1.54251
1.50657
1.46667
1.42307
1.37615
1.32633
1.27417
1.22026
1.16527
1.10991
1.05488
1.00087
0.948507
0.898359
0.850886
0.806444
0.765274
0.727507
0.693174
0.662219
0.63452
0.609901
0.588029
0.568564
0.551209
0.535757
0.522052
0.5099
0.499086
0.489428
0.480815
0.473101
0.466169
0.459914
0.454237
0.449024
0.444254
0.439812
0.43567
0.431801
0.428199
0.424793
0.421573
0.418493
0.415518
0.41262
0.409771
0.406963
0.404233
0.40156
0.398924
0.396203
0.393462
0.390732
0.387921
0.384963
0.381852
0.378575
0.375096
0.37147
0.36757
0.3633
0.358645
0.353619
0.348285
0.342395
0.336198
0.32967
0.322631
0.315241
0.308127
0.301152
0.294198
0.287317
0.28061
0.274063
0.267669
0.261412
0.255256
0.249144
0.243006
0.236758
0.230311
0.223568
0.216432
0.208811
0.200704
0.19211
0.26622
0.342859
0.392488
0.425806
0.449085
0.465712
0.477895
0.48731
0.495372
0.502852
0.510423
0.519177
0.529983
0.543418
0.559684
0.57856
0.599428
0.621392
0.643474
0.664808
0.684808
0.703235
0.720181
0.73598
0.751099
0.76605
0.781318
0.797305
0.814304
0.832491
0.85193
0.872589
0.894358
0.917069
0.940518
0.96448
0.988726
1.01303
1.03719
1.06102
1.08437
1.10711
1.12914
1.15041
1.17088
1.19054
1.20942
1.22755
1.24498
1.26179
1.27807
1.29389
1.30936
1.32457
1.33961
1.35457
1.36955
1.38463
1.39988
1.41536
1.43114
1.44726
1.46375
1.48063
1.49792
1.51561
1.53367
1.55206
1.57074
1.58968
1.60879
1.62796
1.64706
1.66598
1.68455
1.7026
1.71994
1.73637
1.75166
1.76558
1.77785
1.78822
1.79639
1.80207
1.80496
1.80476
1.80118
1.79394
1.78276
1.76742
1.74773
1.72353
1.69476
1.6614
1.62353
1.58133
1.53508
1.48516
1.43207
1.37639
1.3188
1.26003
1.20087
1.1421
1.08446
1.02866
0.975285
0.92483
0.877656
0.833999
0.793977
0.757602
0.724798
0.695417
0.669152
0.645669
0.624667
0.605904
0.589186
0.574308
0.561055
0.54922
0.538625
0.529109
0.520537
0.512779
0.505718
0.499244
0.493281
0.487744
0.482574
0.477718
0.473133
0.46877
0.464633
0.460649
0.456773
0.452972
0.449218
0.445492
0.441788
0.438088
0.434373
0.43061
0.426807
0.422947
0.418982
0.414878
0.410617
0.406177
0.401529
0.396641
0.391446
0.385901
0.379993
0.373711
0.367037
0.359911
0.352389
0.344466
0.336143
0.327491
0.319144
0.311015
0.302999
0.295178
0.287618
0.280342
0.273365
0.266678
0.260243
0.254002
0.247875
0.241766
0.235571
0.229178
0.22248
0.215373
0.207854
0.199919
0.304053
0.388006
0.443276
0.480837
0.507357
0.526473
0.540558
0.551399
0.560006
0.56727
0.574449
0.582576
0.592432
0.604495
0.618897
0.635418
0.653553
0.672632
0.691973
0.711023
0.72945
0.747178
0.764354
0.78128
0.798328
0.815868
0.834216
0.853601
0.87415
0.895893
0.918775
0.94267
0.967404
0.992771
1.01855
1.0445
1.07041
1.09608
1.12131
1.14595
1.16986
1.19295
1.21513
1.23638
1.25666
1.276
1.29442
1.31197
1.32874
1.34479
1.36023
1.37515
1.38967
1.40389
1.41792
1.43187
1.44584
1.45992
1.47421
1.48878
1.5037
1.51903
1.53482
1.55109
1.56787
1.58516
1.60295
1.6212
1.63987
1.65897
1.6784
1.69806
1.71787
1.73769
1.75739
1.77681
1.79577
1.81409
1.83155
1.84792
1.86296
1.87638
1.88791
1.89725
1.90408
1.90808
1.90892
1.90627
1.89982
1.88926
1.87432
1.85476
1.83039
1.8011
1.76685
1.72771
1.68383
1.63551
1.58315
1.52729
1.46856
1.40772
1.34559
1.28302
1.22087
1.15997
1.10107
1.0448
0.991679
0.942073
0.896213
0.854206
0.816042
0.781624
0.750681
0.722896
0.697971
0.675649
0.655701
0.637904
0.622026
0.607842
0.59514
0.583736
0.573464
0.564172
0.55572
0.547982
0.540852
0.534235
0.528049
0.522221
0.516688
0.511391
0.506336
0.501444
0.496655
0.491927
0.487225
0.482522
0.477799
0.473039
0.468224
0.463339
0.458373
0.453304
0.4481
0.442736
0.437192
0.431442
0.425453
0.419183
0.412584
0.405631
0.398304
0.390585
0.382452
0.373897
0.36493
0.355568
0.345874
0.335901
0.326295
0.316997
0.307921
0.29915
0.290749
0.282763
0.275223
0.268127
0.261443
0.255112
0.249049
0.243152
0.237303
0.231379
0.22526
0.218832
0.212078
0.204963
0.338171
0.429111
0.490012
0.532023
0.56207
0.583955
0.600163
0.611992
0.620733
0.627823
0.634463
0.641644
0.650118
0.660361
0.672551
0.686583
0.702135
0.71877
0.736052
0.753643
0.771362
0.789192
0.807258
0.825767
0.844956
0.86504
0.886177
0.908451
0.931869
0.956365
0.981814
1.00805
1.03486
1.06205
1.08938
1.11663
1.14361
1.17012
1.19599
1.22108
1.24529
1.26851
1.29069
1.3118
1.33183
1.35081
1.36876
1.38575
1.40187
1.41719
1.43182
1.44587
1.45946
1.47269
1.4857
1.4986
1.5115
1.5245
1.53771
1.55122
1.5651
1.57942
1.59425
1.60962
1.62555
1.64208
1.65918
1.67685
1.69505
1.71379
1.73299
1.7526
1.77251
1.79263
1.81284
1.833
1.85296
1.87256
1.89161
1.90989
1.92718
1.94324
1.95778
1.97051
1.98113
1.9893
1.99468
1.9969
1.9956
1.99041
1.981
1.96701
1.94817
1.92423
1.89501
1.86046
1.82057
1.77552
1.72559
1.67121
1.61295
1.55153
1.48777
1.42258
1.35691
1.2917
1.22785
1.16617
1.10733
1.05186
1.00014
0.952383
0.908685
0.869012
0.833149
0.80081
0.771714
0.745597
0.722209
0.701306
0.682638
0.66596
0.651037
0.637656
0.625625
0.614762
0.604902
0.595896
0.587612
0.579933
0.572756
0.565985
0.559542
0.553358
0.547391
0.541607
0.535918
0.530268
0.524615
0.518924
0.51317
0.507334
0.501397
0.495347
0.489167
0.482837
0.476332
0.469633
0.462717
0.455559
0.448125
0.440375
0.432272
0.423792
0.414917
0.405626
0.395908
0.385775
0.375241
0.364344
0.353168
0.341789
0.330866
0.32034
0.310156
0.30039
0.291114
0.28239
0.274257
0.266724
0.259766
0.253327
0.247322
0.241644
0.23617
0.230767
0.225303
0.219652
0.213774
0.207593
0.367654
0.464643
0.530671
0.576956
0.610554
0.635283
0.653131
0.665974
0.675412
0.682791
0.689263
0.695794
0.703148
0.711853
0.722191
0.734209
0.747778
0.762663
0.778615
0.795434
0.81301
0.831331
0.850461
0.870507
0.89158
0.913766
0.937105
0.961581
0.987121
1.0136
1.04087
1.06872
1.09696
1.12537
1.15374
1.18186
1.20953
1.23658
1.26285
1.28823
1.31259
1.33586
1.35799
1.37896
1.39875
1.41739
1.43493
1.45142
1.46695
1.4816
1.49549
1.50872
1.52142
1.53371
1.54572
1.55756
1.56936
1.58123
1.59327
1.6056
1.61828
1.63141
1.64504
1.65923
1.67401
1.68942
1.70545
1.72209
1.73934
1.75721
1.77564
1.79459
1.81397
1.83372
1.85373
1.87391
1.89413
1.91426
1.93414
1.95359
1.97242
1.99042
2.00734
2.02292
2.03685
2.04883
2.05851
2.06551
2.06943
2.06987
2.06641
2.05863
2.04614
2.02856
2.00559
1.97699
1.94262
1.90247
1.85666
1.80548
1.74941
1.68906
1.62522
1.55881
1.49084
1.42236
1.3544
1.28794
1.22383
1.16278
1.10533
1.05185
1.00255
0.957495
0.916542
0.879455
0.845984
0.81587
0.788855
0.764679
0.743074
0.723776
0.706529
0.691093
0.677245
0.664776
0.653493
0.64322
0.633797
0.625082
0.616946
0.609273
0.601962
0.594927
0.588098
0.581459
0.574904
0.568361
0.56178
0.55512
0.54835
0.541446
0.53439
0.527166
0.51976
0.512151
0.50432
0.496251
0.487922
0.479309
0.470377
0.461092
0.451421
0.44134
0.430829
0.419873
0.408471
0.396648
0.384432
0.371888
0.359113
0.346236
0.333918
0.322085
0.310716
0.299886
0.289675
0.280153
0.271366
0.263332
0.256033
0.24942
0.243413
0.237906
0.232774
0.227879
0.223081
0.218239
0.213286
0.208104
0.391674
0.493422
0.563732
0.613831
0.650494
0.677432
0.69727
0.711866
0.722709
0.731068
0.738049
0.744605
0.751518
0.759382
0.768587
0.779331
0.79165
0.805478
0.820701
0.83721
0.854932
0.873838
0.893935
0.915245
0.937785
0.961548
0.986495
1.01254
1.03957
1.06743
1.09594
1.1249
1.15411
1.18335
1.21241
1.24111
1.26925
1.29668
1.32324
1.34881
1.37328
1.3966
1.41869
1.43954
1.45915
1.47754
1.49474
1.51082
1.52585
1.53993
1.55317
1.56568
1.57757
1.58898
1.60003
1.61085
1.62156
1.63229
1.64313
1.6542
1.66559
1.67739
1.68965
1.70245
1.71582
1.7298
1.74441
1.75965
1.77551
1.79202
1.80915
1.82685
1.84508
1.86377
1.88287
1.90229
1.92196
1.94176
1.96159
1.98132
2.00079
2.01984
2.03827
2.05586
2.07234
2.08744
2.10082
2.11213
2.12097
2.12689
2.12944
2.12814
2.12248
2.11197
2.09618
2.07468
2.04716
2.0134
1.97336
1.92713
1.87501
1.81749
1.75529
1.68927
1.62046
1.54998
1.479
1.40863
1.33992
1.27378
1.21093
1.15191
1.09709
1.04663
1.00051
0.958558
0.920567
0.886302
0.85551
0.82792
0.803254
0.78123
0.761571
0.744011
0.728298
0.714194
0.701478
0.689943
0.6794
0.669679
0.660625
0.652097
0.643972
0.636141
0.628508
0.621063
0.61369
0.606302
0.598837
0.591247
0.583496
0.575557
0.567408
0.559033
0.550418
0.541547
0.532403
0.522971
0.513233
0.503164
0.492734
0.481908
0.470656
0.458951
0.446772
0.434108
0.420966
0.407379
0.393396
0.379103
0.364609
0.350168
0.33636
0.323122
0.310474
0.298495
0.28727
0.276871
0.267349
0.258726
0.250991
0.244102
0.237989
0.232553
0.227673
0.223214
0.219031
0.21497
0.210935
0.206765
0.40971
0.514813
0.588214
0.640937
0.680163
0.709763
0.732177
0.749149
0.762077
0.772153
0.78043
0.787831
0.795149
0.803023
0.811932
0.822193
0.833979
0.847352
0.862307
0.878802
0.896793
0.916239
0.937107
0.959362
0.982959
1.00783
1.03389
1.06101
1.08905
1.11784
1.14718
1.17688
1.20674
1.23654
1.2661
1.29521
1.3237
1.35141
1.37819
1.40394
1.42853
1.45191
1.47402
1.49484
1.51434
1.53256
1.54954
1.56532
1.57998
1.59361
1.60632
1.61822
1.62942
1.64005
1.65025
1.66013
1.66982
1.67944
1.68911
1.69892
1.70899
1.71938
1.73018
1.74145
1.75324
1.76558
1.77851
1.79204
1.80616
1.8209
1.83626
1.8522
1.8687
1.88571
1.90319
1.9211
1.93939
1.958
1.97685
1.99588
2.01497
2.03402
2.0529
2.07143
2.08942
2.10664
2.12281
2.1376
2.15064
2.1615
2.1697
2.17471
2.17595
2.17285
2.1648
2.15124
2.13165
2.10561
2.07283
2.03319
1.98679
1.93392
1.87516
1.81127
1.74327
1.67229
1.59959
1.52644
1.45405
1.38353
1.3158
1.25161
1.19148
1.13575
1.08449
1.03764
0.995055
0.956544
0.921869
0.890762
0.862939
0.838104
0.815961
0.796221
0.778605
0.762846
0.74869
0.735902
0.724263
0.713572
0.703645
0.694315
0.685434
0.676871
0.668507
0.66031
0.652175
0.644
0.635708
0.627243
0.618563
0.609637
0.600443
0.590962
0.581183
0.571091
0.560675
0.549923
0.538818
0.527337
0.515452
0.503129
0.490337
0.477044
0.463226
0.448871
0.433989
0.418618
0.402825
0.386716
0.370416
0.354363
0.338962
0.324215
0.310182
0.296956
0.284623
0.273256
0.262905
0.253589
0.245304
0.238014
0.231659
0.226153
0.221389
0.217241
0.213565
0.2102
0.207021
0.20383
0.420747
0.527566
0.603103
0.658382
0.700377
0.732872
0.758203
0.778013
0.793599
0.806064
0.816384
0.825437
0.833994
0.842716
0.852136
0.862654
0.874545
0.887973
0.903019
0.919704
0.938015
0.957916
0.979358
1.00228
1.02659
1.0522
1.07899
1.10682
1.13551
1.1649
1.19479
1.22499
1.25529
1.28549
1.31539
1.34481
1.37358
1.40153
1.42854
1.45446
1.47922
1.50272
1.52492
1.54578
1.56529
1.58347
1.60033
1.61595
1.63038
1.64371
1.65604
1.66747
1.67813
1.68813
1.69761
1.70667
1.71546
1.72409
1.73266
1.74129
1.75008
1.75909
1.76842
1.77813
1.78825
1.79885
1.80994
1.82155
1.83369
1.84636
1.8596
1.87338
1.88767
1.90245
1.91771
1.93343
1.94959
1.96617
1.98315
2.00049
2.01815
2.03609
2.05424
2.0725
2.09076
2.10886
2.1266
2.14371
2.15988
2.17471
2.18776
2.19847
2.20624
2.21041
2.21026
2.20508
2.19415
2.17682
2.15257
2.12101
2.08196
2.03552
1.98202
1.9221
1.85667
1.78685
1.71395
1.63934
1.5644
1.49044
1.41858
1.34978
1.28475
1.224
1.16775
1.11607
1.06891
1.02612
0.987515
0.952831
0.921788
0.894083
0.869406
0.847446
0.827899
0.81047
0.794876
0.780849
0.768139
0.756514
0.745761
0.735684
0.72611
0.716883
0.70787
0.698975
0.690142
0.681242
0.672186
0.662908
0.653361
0.643508
0.633327
0.6228
0.611915
0.600665
0.58904
0.577033
0.564631
0.551814
0.538555
0.524821
0.510577
0.495786
0.480418
0.464453
0.447897
0.430788
0.413202
0.395262
0.377148
0.359439
0.342357
0.325997
0.31047
0.295888
0.282346
0.269912
0.258629
0.248511
0.239552
0.231721
0.224968
0.219224
0.214403
0.210397
0.207073
0.204269
0.201837
0.199541
0.424967
0.533023
0.610286
0.667766
0.712365
0.747761
0.776174
0.799131
0.817811
0.833207
0.846202
0.857599
0.868126
0.87843
0.889064
0.90048
0.913021
0.92693
0.94236
0.959395
0.978061
0.998345
1.0202
1.04356
1.06833
1.09441
1.12164
1.14989
1.17899
1.20875
1.23899
1.26951
1.3001
1.33058
1.36075
1.39043
1.41944
1.44764
1.47487
1.50102
1.52599
1.54969
1.57206
1.59307
1.6127
1.63095
1.64786
1.66346
1.67781
1.691
1.70312
1.71426
1.72455
1.7341
1.74302
1.75145
1.75949
1.76728
1.77491
1.78249
1.79011
1.79785
1.80579
1.81398
1.82247
1.83131
1.84053
1.85013
1.86015
1.87059
1.88149
1.89282
1.90458
1.91674
1.92931
1.9423
1.9557
1.96955
1.98384
1.9986
2.01384
2.02959
2.04583
2.06257
2.07977
2.09736
2.11524
2.13324
2.15114
2.16862
2.18528
2.20063
2.21406
2.22488
2.23228
2.23543
2.23344
2.22544
2.21063
2.18834
2.1581
2.1197
2.07323
2.0191
1.95806
1.89118
1.81973
1.74518
1.66903
1.59276
1.51773
1.44508
1.37573
1.31039
1.24945
1.19314
1.1415
1.0945
1.05196
1.01369
0.979403
0.948799
0.92156
0.897358
0.875866
0.856762
0.839735
0.824485
0.810732
0.798211
0.786678
0.775909
0.765701
0.755874
0.74627
0.736759
0.727295
0.717736
0.707981
0.697956
0.687605
0.67689
0.665786
0.654277
0.642355
0.630015
0.617255
0.604071
0.590457
0.576398
0.561869
0.546839
0.531268
0.515114
0.498334
0.480899
0.462799
0.444068
0.424777
0.405054
0.385253
0.365841
0.347015
0.328956
0.311833
0.29579
0.280933
0.267329
0.25501
0.24398
0.234223
0.225708
0.218394
0.212229
0.207155
0.20309
0.199924
0.197504
0.195662
0.194137
0.424385
0.532828
0.611193
0.670452
0.71741
0.755624
0.787179
0.813468
0.83554
0.854264
0.870411
0.88469
0.897762
0.910234
0.922653
0.935489
0.949129
0.963873
0.979938
0.997464
1.01653
1.03715
1.05931
1.08295
1.10798
1.1343
1.16178
1.19025
1.21956
1.24953
1.27996
1.31067
1.34147
1.37215
1.40253
1.43243
1.46168
1.49013
1.51762
1.54404
1.56928
1.59326
1.6159
1.63717
1.65704
1.67551
1.69259
1.70833
1.72277
1.73599
1.74808
1.75912
1.76923
1.77852
1.78709
1.79507
1.80257
1.80971
1.81659
1.8233
1.82993
1.83656
1.84325
1.85006
1.85704
1.86421
1.87161
1.87924
1.88713
1.89529
1.90375
1.91251
1.92154
1.93084
1.94042
1.9503
1.9605
1.97108
1.98206
1.99352
2.00551
2.01811
2.0314
2.04543
2.06026
2.07594
2.09246
2.10978
2.12778
2.14629
2.16499
2.18349
2.20124
2.21756
2.23165
2.24255
2.24926
2.25069
2.24578
2.23358
2.21327
2.18431
2.14645
2.09983
2.04499
1.98282
1.91458
1.84173
1.76586
1.68864
1.6116
1.53607
1.46319
1.39386
1.32868
1.26805
1.21216
1.16106
1.11468
1.07287
1.03536
1.00186
0.972055
0.945609
0.922171
0.901398
0.882949
0.866498
0.851729
0.838348
0.82608
0.814669
0.803886
0.793522
0.783393
0.773338
0.763308
0.753153
0.742762
0.732051
0.72096
0.709446
0.697483
0.685058
0.672164
0.658804
0.644982
0.630703
0.615967
0.600764
0.585079
0.56888
0.552125
0.534766
0.516749
0.498028
0.478572
0.458401
0.437566
0.416263
0.394914
0.373813
0.353229
0.333421
0.314623
0.297024
0.280752
0.265879
0.252424
0.240376
0.229704
0.220368
0.212333
0.205565
0.200032
0.19569
0.192462
0.190214
0.188771
0.187853
0.419809
0.528006
0.606994
0.667698
0.716807
0.757737
0.792433
0.822146
0.847786
0.870089
0.889702
0.907231
0.923254
0.938321
0.952948
0.967602
0.982693
0.99856
1.01547
1.03362
1.05313
1.07407
1.09646
1.12026
1.14542
1.17183
1.19938
1.22793
1.2573
1.28734
1.31786
1.34867
1.37959
1.41042
1.44097
1.47108
1.50057
1.52927
1.55706
1.5838
1.60938
1.63371
1.65672
1.67835
1.69858
1.7174
1.7348
1.75083
1.76553
1.77896
1.7912
1.80233
1.81245
1.82168
1.8301
1.83785
1.84502
1.85172
1.85805
1.8641
1.86994
1.87566
1.8813
1.88692
1.89254
1.89821
1.90393
1.90971
1.91557
1.9215
1.92755
1.93372
1.93998
1.94633
1.95278
1.95937
1.96613
1.97311
1.98039
1.98804
1.99619
2.00493
2.0144
2.02473
2.03607
2.04855
2.06228
2.07735
2.09379
2.11155
2.13048
2.15032
2.17065
2.19087
2.21022
2.22775
2.24233
2.25274
2.25768
2.25589
2.24621
2.22771
2.19978
2.16219
2.1152
2.0595
1.99619
1.92677
1.85276
1.7761
1.69842
1.62121
1.54578
1.47325
1.40445
1.33997
1.28018
1.22522
1.17512
1.12988
1.08922
1.05287
1.02053
0.991856
0.966488
0.94406
0.924209
0.906579
0.890823
0.876618
0.863655
0.851651
0.840344
0.8295
0.818909
0.808381
0.797844
0.787152
0.776185
0.764848
0.753075
0.740822
0.72806
0.714777
0.700974
0.686659
0.671845
0.656546
0.64077
0.624518
0.607784
0.590541
0.572746
0.55435
0.535284
0.515487
0.494895
0.473515
0.45141
0.428845
0.406068
0.383376
0.361091
0.339541
0.319031
0.299809
0.282041
0.26581
0.25113
0.23797
0.226278
0.216001
0.2071
0.199556
0.193366
0.188526
0.185003
0.182695
0.181431
0.180925
0.411572
0.519146
0.598483
0.660475
0.711665
0.755314
0.793218
0.82648
0.855866
0.881971
0.90532
0.926405
0.945713
0.963724
0.98091
0.997719
1.01457
1.03181
1.04977
1.06867
1.08871
1.10998
1.13256
1.15646
1.18163
1.20802
1.23552
1.264
1.29332
1.32332
1.35382
1.38465
1.41562
1.44655
1.47725
1.50754
1.53727
1.56626
1.59438
1.62149
1.64748
1.67224
1.69571
1.71782
1.73853
1.75782
1.7757
1.79218
1.80729
1.8211
1.83366
1.84506
1.85539
1.86474
1.87322
1.88092
1.88795
1.89441
1.90039
1.90596
1.91121
1.9162
1.92097
1.92556
1.93001
1.93432
1.9385
1.94256
1.94649
1.95029
1.95397
1.95756
1.96104
1.96441
1.96768
1.97087
1.97404
1.97724
1.98056
1.9841
1.98798
1.99235
1.99737
2.00325
2.01017
2.01836
2.02805
2.03943
2.05268
2.06793
2.0852
2.10441
2.12532
2.14751
2.17031
2.19286
2.21402
2.23247
2.24674
2.25528
2.25657
2.24928
2.23237
2.2052
2.16765
2.12013
2.06352
1.99942
1.9293
1.85493
1.77807
1.7004
1.62347
1.54857
1.4768
1.40899
1.34568
1.28722
1.23372
1.18519
1.14146
1.10227
1.06738
1.03649
1.00919
0.985098
0.963842
0.945033
0.928297
0.91328
0.899644
0.887072
0.875275
0.863989
0.85298
0.84204
0.831023
0.819831
0.808323
0.796396
0.783977
0.771018
0.757492
0.743388
0.728712
0.71348
0.697715
0.681442
0.664681
0.647445
0.629742
0.611552
0.592834
0.573546
0.553598
0.532929
0.51142
0.48915
0.466138
0.442523
0.418515
0.394405
0.370544
0.34732
0.325111
0.304233
0.284909
0.267249
0.251268
0.236917
0.224119
0.2128
0.202912
0.194443
0.187417
0.181873
0.177826
0.175219
0.1739
0.173587
0.401082
0.507746
0.587248
0.650371
0.70348
0.749672
0.790593