/*--------------------------------*- C++ -*----------------------------------*\
  =========                 |
  \\      /  F ield         | OpenFOAM: The Open Source CFD Toolbox
   \\    /   O peration     | Website:  https://openfoam.org
    \\  /    A nd           | Version:  9
     \\/     M anipulation  |
\*---------------------------------------------------------------------------*/
FoamFile
{
    format      ascii;
    class       volScalarField;
    location    "0.15";
    object      nut;
}
// * * * * * * * * * * * * * * * * * * * * * * * * * * * * * * * * * * * * * //

dimensions      [0 2 -1 0 0 0 0];

internalField   nonuniform List<scalar> 
12225
(
3.05115e-05
1.83913e-05
1.19269e-05
8.53109e-06
6.69863e-06
5.63241e-06
4.93659e-06
4.42635e-06
4.01894e-06
3.67642e-06
3.37943e-06
3.11671e-06
2.8815e-06
2.67079e-06
2.48728e-06
2.35385e-06
2.41978e-06
5.14678e-06
0.000163084
0.000102492
8.26552e-05
7.3545e-05
6.84759e-05
6.4992e-05
6.20534e-05
5.93182e-05
5.67209e-05
5.42619e-05
5.19418e-05
4.97606e-05
4.77298e-05
4.58928e-05
4.43686e-05
4.3534e-05
4.44978e-05
4.9013e-05
0.000338761
0.000220995
0.000179388
0.000158492
0.000145953
0.000137308
0.00013048
0.000124532
0.000119092
0.000114022
0.000109263
0.000104805
0.000100679
9.69933e-05
9.40049e-05
9.23555e-05
9.3136e-05
9.82094e-05
0.000503072
0.000350047
0.000285965
0.000251341
0.000229663
0.000214554
0.000202917
0.000193177
0.000184556
0.000176665
0.000169311
0.000162411
0.000155973
0.000150124
0.000145183
0.000141804
0.000140692
0.000143763
0.000628399
0.000471822
0.000392449
0.000345828
0.000315289
0.000293541
0.000276821
0.000263065
0.000251131
0.00024038
0.000230451
0.000221155
0.00021244
0.000204401
0.000197337
0.000191766
0.000188011
0.000187836
0.000714004
0.000575951
0.000491543
0.000437104
0.000399506
0.00037191
0.000350439
0.000332807
0.000317646
0.000304126
0.000291738
0.000280188
0.000269342
0.000259237
0.000250089
0.000242225
0.000235685
0.000231976
0.000768802
0.000658533
0.000578321
0.000521223
0.000479367
0.000447476
0.000422139
0.000401156
0.000383108
0.000367075
0.000352456
0.000338871
0.000326118
0.000314157
0.000303101
0.000293089
0.000283975
0.00027697
0.000802477
0.000720178
0.000650265
0.000595314
0.000552359
0.0005182
0.000490307
0.000466839
0.000446503
0.0004284
0.000411906
0.000396604
0.00038224
0.000368709
0.000356022
0.000344167
0.000332893
0.000323121
0.000822632
0.000763957
0.000706999
0.000657751
0.000616611
0.000582332
0.000553423
0.000528578
0.000506768
0.000487214
0.000469344
0.000452746
0.00043715
0.000422407
0.00040845
0.000395163
0.000382256
0.000370387
0.000834488
0.000793785
0.000749734
0.000708145
0.000671036
0.00063857
0.000610197
0.000585187
0.00056285
0.000542599
0.000523966
0.000506594
0.000490229
0.000474706
0.00045991
0.000445672
0.000431707
0.000418466
0.000841388
0.000813419
0.000780603
0.000747151
0.000715376
0.000686181
0.000659694
0.000635682
0.000613793
0.00059366
0.000574956
0.000557407
0.000540803
0.000524991
0.000509841
0.000495174
0.00048074
0.000466841
0.000845051
0.000824932
0.000800266
0.000773699
0.000747166
0.000721743
0.000697884
0.000675673
0.000655009
0.000635713
0.000617588
0.00060045
0.000584146
0.00056855
0.000553544
0.000538963
0.000524599
0.000510656
0.000847304
0.000832559
0.000814197
0.000793611
0.000772148
0.000750769
0.000730035
0.000710212
0.000691378
0.000673507
0.000656521
0.000640328
0.000624835
0.000609959
0.000595608
0.000581654
0.000567951
0.000554648
0.000848786
0.000837915
0.000824637
0.000809435
0.000793029
0.000776081
0.000759086
0.000742363
0.000726093
0.000710362
0.000695193
0.000680576
0.000666487
0.00065289
0.000639733
0.00062694
0.000614426
0.000602316
0.000849679
0.000841331
0.000831724
0.000820845
0.000808926
0.000796292
0.000783257
0.000770081
0.000756954
0.000744007
0.000731325
0.000718958
0.000706933
0.000695259
0.00068393
0.000672916
0.000662197
0.000651888
0.000850167
0.000843289
0.000836025
0.000828191
0.000819753
0.000810782
0.000801404
0.000791757
0.000781976
0.000772174
0.000762443
0.000752855
0.000743465
0.000734309
0.000725411
0.000716781
0.000708442
0.000700504
0.000850404
0.000844278
0.000838314
0.000832323
0.00082619
0.000819863
0.000813346
0.000806675
0.000799909
0.000793114
0.000786357
0.000779697
0.000773185
0.000766862
0.00076076
0.000754907
0.000749339
0.000744149
0.000850495
0.00084468
0.000839291
0.000834186
0.000829254
0.000824423
0.000819658
0.000814952
0.000810322
0.000805801
0.000801427
0.000797238
0.000793271
0.000789554
0.000786109
0.000782957
0.000780121
0.000777651
0.000850481
0.000844648
0.000839258
0.000834196
0.000829383
0.000824781
0.000820384
0.000816209
0.000812291
0.000808669
0.000805387
0.000802481
0.00079998
0.000797904
0.000796261
0.000795054
0.000794274
0.000793913
0.000850285
0.000843871
0.000837529
0.000831179
0.000824838
0.00081859
0.00081255
0.000806837
0.000801561
0.000796816
0.000792673
0.000789184
0.000786377
0.000784265
0.000782839
0.00078208
0.000781943
0.000782363
0.000849733
0.000841725
0.000832946
0.000823552
0.000813866
0.000804249
0.000795015
0.000786408
0.000778603
0.000771714
0.000765808
0.000760914
0.000757037
0.000754155
0.000752234
0.000751218
0.000751031
0.000751559
0.000848219
0.000836181
0.000821916
0.000806467
0.000790862
0.000775893
0.00076205
0.000749604
0.000738675
0.000729291
0.000721426
0.000715023
0.000710008
0.000706298
0.000703804
0.000702428
0.000702055
0.000702526
0.000844308
0.000823194
0.000798441
0.000773115
0.000749232
0.000727783
0.000709023
0.000692941
0.000679365
0.000668082
0.000658875
0.00065154
0.000645896
0.000641779
0.000639042
0.000637544
0.00063714
0.000637636
0.000834682
0.000795529
0.00075422
0.000716288
0.000683615
0.000656359
0.000634081
0.00061599
0.000601311
0.000589499
0.000580117
0.000572816
0.000567317
0.000563396
0.000560865
0.000559562
0.000559328
0.00055996
0.000812161
0.000742263
0.000680494
0.000631053
0.000592563
0.000562791
0.000539761
0.000521968
0.000508224
0.00049748
0.00048915
0.000482806
0.000478129
0.000474879
0.000472865
0.000471933
0.000471938
0.000472693
0.000762755
0.000650997
0.000572469
0.000518234
0.000479952
0.000452342
0.000432052
0.000416928
0.000405622
0.00039716
0.000390709
0.000385863
0.000382336
0.000379921
0.000378467
0.000377853
0.00037797
0.000378674
0.000663874
0.000514944
0.000434384
0.000385927
0.000354507
0.000333187
0.000318203
0.000307356
0.000299362
0.000293515
0.000289146
0.000285838
0.000283392
0.000281675
0.000280595
0.000280081
0.000280072
0.000280477
0.000492654
0.000344034
0.000281633
0.000247864
0.000227375
0.000214207
0.000205299
0.000198953
0.000194251
0.000190713
0.000188109
0.000186033
0.00018439
0.00018313
0.000182221
0.00018164
0.000181364
0.000181354
0.000262135
0.000171248
0.00013773
0.000120357
0.000110291
0.000104144
0.000100095
9.71819e-05
9.49417e-05
9.31669e-05
9.17926e-05
9.06436e-05
8.96626e-05
8.88515e-05
8.82079e-05
8.77261e-05
8.73986e-05
8.72162e-05
5.96721e-05
4.2614e-05
3.14427e-05
2.40958e-05
1.92458e-05
1.60219e-05
1.38447e-05
1.23332e-05
1.12483e-05
1.0445e-05
9.83731e-06
9.38319e-06
9.03882e-06
8.77594e-06
8.57624e-06
8.4274e-06
8.32067e-06
8.25029e-06
2.17313e-05
0.00015405
0.000178299
0.00019702
0.000208315
4.49577e-05
0.000211175
4.63653e-05
4.53207e-05
0.000204905
4.5546e-05
4.3997e-05
0.000198081
0.000200535
0.000200502
0.000200869
0.000202963
0.000205583
4.44264e-05
4.61236e-05
4.75714e-05
4.81599e-05
4.81547e-05
4.71488e-05
4.71017e-05
4.74725e-05
4.79249e-05
4.83514e-05
4.88571e-05
4.97729e-05
5.08571e-05
5.20608e-05
5.33629e-05
5.47525e-05
5.62173e-05
5.77418e-05
5.93088e-05
6.09009e-05
6.25017e-05
6.40971e-05
6.56751e-05
6.72262e-05
6.87432e-05
7.02208e-05
7.16556e-05
7.30454e-05
7.43889e-05
7.56858e-05
7.69363e-05
7.8141e-05
7.93006e-05
8.04162e-05
8.14885e-05
8.25185e-05
8.35071e-05
8.44548e-05
8.53624e-05
8.62302e-05
8.70586e-05
8.78478e-05
8.8598e-05
8.93093e-05
8.99821e-05
9.06166e-05
9.12136e-05
9.17741e-05
9.23e-05
9.27936e-05
9.32593e-05
9.37214e-05
9.41353e-05
9.45015e-05
9.48194e-05
9.5087e-05
9.53017e-05
9.54607e-05
9.55606e-05
9.55979e-05
9.55686e-05
9.54687e-05
9.52938e-05
9.50396e-05
9.47012e-05
9.42739e-05
9.37529e-05
9.31334e-05
9.24107e-05
9.15806e-05
9.06389e-05
8.95825e-05
8.84086e-05
8.71159e-05
8.5704e-05
8.41741e-05
8.25294e-05
8.0775e-05
7.89183e-05
7.69691e-05
7.49399e-05
7.28457e-05
7.07039e-05
6.8534e-05
6.63574e-05
6.41971e-05
6.20771e-05
6.00222e-05
5.80573e-05
5.62071e-05
5.4495e-05
5.29426e-05
5.15687e-05
5.03868e-05
4.93876e-05
4.85122e-05
4.7633e-05
4.65732e-05
4.55475e-05
4.56049e-05
4.68324e-05
0.000215397
0.000212811
4.73149e-05
4.71003e-05
4.68788e-05
4.65317e-05
4.58399e-05
4.47987e-05
4.64782e-05
0.000204306
0.000201929
0.000198737
4.40214e-05
0.000199907
0.000199902
0.00019923
0.00019897
0.0001996
0.000200757
0.000198992
4.49874e-05
4.48537e-05
4.44354e-05
0.000199557
0.000198259
4.3984e-05
4.51176e-05
0.000213284
0.000212387
0.000207915
0.000196523
4.19113e-05
4.2745e-05
0.000209355
0.000204246
0.000192022
4.00965e-05
0.000203099
3.7935e-05
3.75178e-05
0.000196383
0.000193157
0.000185947
0.000189055
0.000194251
0.000186538
0.000188223
0.000189328
0.000187446
0.000184208
0.000180305
0.000175942
0.000171181
0.000166048
0.000160554
0.000154694
0.000148453
0.000141791
0.000134626
0.000126805
0.000118798
3.06468e-05
9.37821e-05
0.000149733
0.000191356
0.000222588
0.00023825
0.000262956
0.000260877
0.000268003
0.000281508
0.00026794
0.000263575
0.000275577
0.000275
0.000271816
0.000270478
0.000272029
0.000273548
0.000263265
0.000266081
0.000273705
0.000279938
0.000287218
0.000288311
0.000288622
0.00028859
0.000288214
0.000287577
0.000286802
0.00028624
0.000286144
0.000286609
0.000287675
0.000289369
0.00029171
0.000294707
0.000298363
0.000302671
0.000307616
0.000313175
0.000319318
0.00032601
0.000333215
0.000340894
0.00034901
0.000357528
0.000366418
0.000375655
0.00038522
0.000395098
0.000405282
0.000415767
0.000426552
0.00043764
0.000449033
0.000460735
0.000472747
0.000485066
0.000497686
0.000510593
0.000523764
0.00053716
0.000550731
0.000564404
0.000578078
0.000591622
0.000604863
0.000617591
0.000629546
0.000640736
0.000651883
0.000663033
0.00067416
0.000685224
0.000696178
0.00070697
0.000717544
0.000727836
0.000737779
0.000747298
0.000756315
0.000764747
0.000772505
0.000779499
0.000785633
0.00079081
0.000794932
0.000797902
0.000799625
0.000800008
0.000798965
0.000796421
0.000792307
0.000786571
0.000779174
0.000770096
0.000759334
0.000746904
0.000732842
0.000717202
0.000700057
0.000681495
0.000661629
0.000640598
0.000618579
0.000595801
0.000572548
0.000549164
0.000526028
0.000503522
0.000481971
0.000461587
0.000442407
0.000424281
0.000406947
0.000390098
0.000375082
0.000368574
0.000375425
0.000414847
0.000395675
0.000335448
0.000327746
0.000323784
0.000320193
0.000317553
0.000324923
0.000329081
0.000378454
0.000374089
0.000362394
0.000327448
0.00036915
0.000372183
0.000371391
0.000371587
0.000372065
0.00036951
0.0003529
0.000301676
0.000302575
0.000312083
0.000363278
0.000352407
0.000301419
0.000319471
0.000415325
0.000417385
0.000403211
0.000361927
0.00029879
0.000313601
0.00042937
0.000405723
0.000360731
0.000300676
0.000412903
0.000282383
0.000283252
0.000412697
0.000409696
0.000375913
0.00040117
0.000424771
0.000378587
0.000410823
0.00042306
0.000421926
0.000415667
0.00040752
0.000398487
0.00038884
0.00037863
0.000367824
0.000356343
0.000344067
0.000330805
0.000316193
0.000298461
0.000276954
4.34743e-05
0.000124173
0.000202991
0.000270558
0.000325816
0.000369042
0.000402213
0.000424665
0.0004395
0.000448077
0.00044971
0.000447952
0.000443763
0.000437362
0.000431288
0.000427577
0.00042698
0.000428843
0.00043164
0.000436969
0.000442538
0.000446696
0.000449415
0.000450888
0.000451926
0.000452894
0.000454103
0.000455883
0.000458565
0.000462467
0.000467828
0.000474807
0.000483499
0.000493949
0.000506158
0.000520086
0.000535649
0.000552733
0.000571197
0.000590878
0.000611607
0.000633211
0.000655527
0.000678404
0.000701709
0.000725333
0.000749187
0.000773208
0.000797351
0.00082159
0.000845915
0.000870327
0.000894836
0.000919454
0.000944198
0.00096908
0.000994109
0.00101928
0.0010446
0.00107003
0.00109555
0.00112109
0.0011466
0.001172
0.00119717
0.00122202
0.00124643
0.0012703
0.00129346
0.00131637
0.00133926
0.00136213
0.00138492
0.00140756
0.00142994
0.00145198
0.00147355
0.00149453
0.0015148
0.00153421
0.00155262
0.00156986
0.00158577
0.00160018
0.00161291
0.00162378
0.00163262
0.00163924
0.00164348
0.00164516
0.00164414
0.00164029
0.00163349
0.00162365
0.00161071
0.00159465
0.00157545
0.00155316
0.00152783
0.00149954
0.00146839
0.00143452
0.00139806
0.0013592
0.00131816
0.00127525
0.0012309
0.00118566
0.00114017
0.0010952
0.00105151
0.00100979
0.000970573
0.00093425
0.000900673
0.000869954
0.000843653
0.000824996
0.000815435
0.000812622
0.000793283
0.000764348
0.000751476
0.000742571
0.000735367
0.000730292
0.000730298
0.000732036
0.000741676
0.000736531
0.000728152
0.000717449
0.000725966
0.000724833
0.000722545
0.000720772
0.000719029
0.000715444
0.000706084
0.000688345
0.000687854
0.000692205
0.00070369
0.000697276
0.000682199
0.000694346
0.000724589
0.000723343
0.000712742
0.000692224
0.000669716
0.000679532
0.000715618
0.000700914
0.000678484
0.000659825
0.000693726
0.000637885
0.00063293
0.000673936
0.000664263
0.000639913
0.000648641
0.000660067
0.000629286
0.000642094
0.000647321
0.000642573
0.000632836
0.000620901
0.000607817
0.000593912
0.000579247
0.000563766
0.000547342
0.000529779
0.000510775
0.000489805
0.000465465
0.000434984
5.58448e-05
0.000158731
0.000261429
0.000348821
0.000419642
0.000474985
0.000516443
0.00054556
0.000564117
0.000573901
0.000576695
0.000573568
0.000566783
0.000558907
0.000552263
0.000548391
0.00054788
0.000550398
0.000555075
0.000561082
0.000567273
0.000572943
0.000578048
0.000582948
0.000588131
0.00059407
0.000601233
0.000610064
0.000620947
0.000634182
0.000649966
0.000668387
0.000689438
0.000713027
0.000738989
0.0007671
0.000797096
0.000828687
0.000861572
0.000895457
0.000930067
0.00096515
0.00100049
0.00103591
0.00107126
0.00110644
0.00114137
0.00117601
0.00121034
0.00124437
0.0012781
0.00131157
0.0013448
0.00137784
0.00141071
0.00144345
0.00147607
0.0015086
0.00154103
0.00157337
0.00160559
0.00163767
0.00166957
0.00170123
0.00173261
0.00176365
0.00179429
0.00182447
0.00185421
0.00188379
0.00191325
0.00194256
0.00197164
0.00200038
0.00202866
0.00205635
0.00208332
0.0021094
0.00213444
0.00215826
0.00218068
0.00220151
0.00222054
0.00223757
0.0022524
0.0022648
0.00227458
0.00228152
0.00228543
0.00228614
0.00228348
0.00227731
0.00226752
0.00225405
0.00223685
0.00221592
0.00219132
0.00216312
0.00213145
0.00209643
0.00205824
0.00201704
0.00197299
0.00192627
0.00187707
0.00182563
0.00177225
0.0017174
0.00166165
0.00160576
0.0015506
0.00149707
0.00144604
0.00139825
0.00135389
0.00131346
0.00127783
0.00124815
0.00122444
0.00120438
0.00118225
0.00116017
0.00114385
0.00113075
0.0011199
0.0011112
0.00110511
0.00110062
0.00109739
0.0010908
0.00108344
0.00107651
0.0010739
0.00106934
0.00106466
0.00106017
0.00105562
0.00105032
0.00104329
0.00103493
0.00103101
0.00102832
0.00102618
0.00102006
0.00101313
0.00101392
0.00101775
0.00101207
0.00100229
0.000989688
0.000978771
0.000977331
0.000980719
0.000968742
0.00095482
0.000944724
0.00094552
0.000921161
0.000909246
0.000908249
0.000893314
0.000873621
0.000868891
0.000867138
0.000845515
0.00084248
0.000837366
0.000826878
0.00081306
0.000797476
0.0007808
0.000763249
0.000744846
0.000725509
0.000705083
0.000683342
0.00065995
0.000634366
0.000605538
0.000571281
6.81061e-05
0.000194459
0.000318795
0.000422631
0.000505425
0.000568927
0.000615597
0.00064772
0.000667549
0.000677431
0.000679253
0.000675336
0.000668475
0.000661234
0.000655662
0.000653026
0.00065374
0.000657505
0.000663607
0.000671251
0.000679748
0.000688752
0.000698312
0.000708766
0.000720577
0.000734239
0.000750219
0.000768906
0.000790583
0.000815405
0.000843391
0.000874444
0.000908359
0.000944856
0.000983596
0.00102421
0.00106631
0.00110953
0.00115351
0.00119792
0.00124248
0.00128695
0.00133112
0.00137484
0.001418
0.00146051
0.00150232
0.00154342
0.00158381
0.00162351
0.00166256
0.001701
0.00173888
0.00177624
0.00181315
0.00184964
0.00188576
0.00192154
0.00195701
0.00199218
0.00202707
0.00206167
0.00209598
0.00212997
0.00216363
0.00219692
0.00222981
0.00226226
0.00229428
0.0023261
0.00235769
0.00238899
0.00241991
0.00245033
0.00248014
0.00250919
0.00253733
0.00256441
0.00259027
0.00261471
0.00263755
0.0026586
0.00267765
0.0026945
0.00270892
0.00272072
0.00272968
0.0027356
0.00273829
0.00273757
0.0027333
0.00272534
0.00271361
0.00269804
0.00267863
0.00265542
0.00262848
0.00259795
0.00256399
0.00252681
0.00248663
0.00244365
0.00239809
0.00235013
0.00229991
0.00224759
0.00219334
0.00213738
0.00208008
0.00202195
0.00196369
0.00190611
0.00185014
0.00179666
0.00174625
0.00169956
0.00165723
0.00161979
0.00158719
0.00155844
0.00153197
0.00150817
0.0014881
0.00147107
0.00145654
0.00144417
0.00143375
0.0014247
0.00141638
0.0014077
0.00139911
0.00139095
0.0013838
0.00137629
0.00136891
0.00136155
0.00135408
0.00134626
0.00133788
0.00132923
0.00132146
0.00131373
0.00130569
0.00129672
0.00128772
0.00128044
0.00127319
0.00126283
0.00125073
0.00123774
0.00122562
0.00121585
0.0012065
0.00119252
0.00117796
0.00116472
0.00115299
0.00113428
0.00111737
0.00110208
0.00108333
0.00106349
0.00105002
0.00103857
0.00101879
0.0010059
0.000992545
0.000976645
0.000958835
0.000939796
0.000919843
0.000899059
0.000877415
0.00085481
0.000831082
0.000806006
0.000779264
0.000750379
0.000718624
0.00068287
8.03427e-05
0.00022744
0.00037037
0.000488345
0.00058136
0.000652203
0.000703865
0.000739209
0.00076105
0.000771823
0.00077404
0.000770765
0.0007649
0.000758968
0.000754869
0.000753736
0.000755959
0.000761363
0.000769472
0.000779757
0.00079183
0.000805546
0.000821019
0.000838548
0.000858518
0.000881311
0.000907243
0.000936523
0.000969227
0.0010053
0.00104456
0.00108673
0.00113146
0.00117834
0.00122696
0.00127689
0.00132772
0.00137908
0.00143062
0.00148204
0.00153309
0.00158355
0.00163324
0.00168204
0.00172985
0.00177661
0.0018223
0.0018669
0.00191043
0.00195293
0.00199444
0.00203502
0.00207472
0.00211362
0.00215177
0.00218923
0.00222608
0.00226236
0.00229812
0.0023334
0.00236824
0.00240266
0.00243668
0.0024703
0.00250352
0.00253633
0.0025687
0.00260061
0.00263201
0.00266315
0.00269399
0.00272444
0.00275442
0.00278383
0.00281253
0.00284042
0.00286735
0.00289316
0.00291772
0.00294083
0.00296235
0.00298207
0.00299981
0.00301538
0.00302858
0.00303922
0.0030471
0.00305203
0.00305383
0.00305234
0.0030474
0.00303891
0.00302678
0.00301094
0.00299141
0.00296821
0.00294145
0.00291128
0.00287787
0.00284147
0.00280234
0.00276073
0.00271689
0.00267104
0.00262334
0.00257389
0.00252276
0.00247001
0.00241575
0.00236023
0.00230383
0.00224714
0.00219091
0.00213598
0.00208315
0.00203318
0.00198674
0.00194432
0.00190609
0.00187179
0.00184097
0.00181357
0.00178963
0.00176877
0.00175058
0.00173467
0.00172065
0.00170805
0.0016964
0.00168523
0.00167446
0.00166401
0.00165385
0.00164356
0.00163341
0.00162317
0.00161274
0.00160199
0.00159086
0.0015794
0.0015678
0.00155582
0.00154337
0.00153039
0.00151711
0.00150382
0.00148999
0.00147483
0.00145874
0.00144213
0.0014256
0.0014094
0.00139284
0.00137471
0.0013562
0.00133785
0.0013193
0.00129859
0.00127758
0.00125638
0.00123441
0.00121241
0.00119324
0.00117535
0.00115424
0.00113543
0.00111649
0.00109637
0.00107518
0.00105311
0.00103027
0.00100664
0.000982149
0.000956709
0.000930178
0.000902366
0.000873009
0.000841731
0.000808065
0.000771546
9.19018e-05
0.000256176
0.000415758
0.000547081
0.000650256
0.00072871
0.000786065
0.000825739
0.000850598
0.000863455
0.000867584
0.000866163
0.000862138
0.000858015
0.000855671
0.000856274
0.000860337
0.000867892
0.00087871
0.000892505
0.000909077
0.000928374
0.000950496
0.00097564
0.00100403
0.00103585
0.00107121
0.0011101
0.00115239
0.00119785
0.00124615
0.00129691
0.00134971
0.00140411
0.00145967
0.00151598
0.00157265
0.00162933
0.00168572
0.00174153
0.00179654
0.00185056
0.00190344
0.00195506
0.00200535
0.00205426
0.00210176
0.00214785
0.00219256
0.00223592
0.00227799
0.00231883
0.0023585
0.00239709
0.00243467
0.00247133
0.00250713
0.00254216
0.00257648
0.00261015
0.00264323
0.00267576
0.00270779
0.00273933
0.00277041
0.00280102
0.00283116
0.00286079
0.00288989
0.00291868
0.00294711
0.00297512
0.00300262
0.00302953
0.00305574
0.00308115
0.00310563
0.00312906
0.00315131
0.00317222
0.00319165
0.00320944
0.00322542
0.00323944
0.00325132
0.00326088
0.00326795
0.00327235
0.00327393
0.00327253
0.00326799
0.0032602
0.00324907
0.00323453
0.00321655
0.00319516
0.00317044
0.0031425
0.00311154
0.00307778
0.00304149
0.00300297
0.00296249
0.00292032
0.00287664
0.00283157
0.00278516
0.00273738
0.00268817
0.00263754
0.00258557
0.00253256
0.00247899
0.00242551
0.00237295
0.00232214
0.00227379
0.00222852
0.00218673
0.00214855
0.00211394
0.00208287
0.00205521
0.00203068
0.00200894
0.0019896
0.00197224
0.00195646
0.00194184
0.00192801
0.00191472
0.00190175
0.00188891
0.00187594
0.001863
0.00184991
0.00183653
0.00182273
0.00180845
0.00179364
0.00177831
0.00176236
0.00174576
0.00172851
0.00171065
0.00169223
0.00167308
0.00165304
0.00163226
0.00161092
0.00158924
0.00156728
0.00154485
0.0015217
0.00149822
0.00147456
0.00145061
0.00142594
0.00140097
0.00137585
0.00135079
0.00132609
0.00130302
0.00128094
0.00125785
0.00123552
0.00121312
0.00119012
0.00116641
0.00114198
0.00111677
0.00109073
0.00106379
0.00103588
0.00100692
0.000976789
0.000945322
0.000912261
0.000877335
0.000840351
0.000102344
0.0002815
0.000455861
0.00059957
0.000712722
0.000799217
0.000863186
0.00090799
0.00093694
0.000953511
0.000961046
0.000962748
0.000961563
0.000960005
0.000960012
0.000962883
0.000969327
0.000979609
0.000993725
0.00101157
0.00103303
0.00105808
0.00108674
0.00111905
0.00115505
0.00119472
0.00123797
0.00128462
0.00133438
0.00138692
0.00144184
0.00149871
0.0015571
0.00161657
0.00167672
0.00173714
0.00179749
0.00185744
0.00191671
0.00197506
0.00203228
0.00208819
0.00214266
0.00219559
0.00224689
0.00229652
0.00234447
0.00239074
0.00243534
0.00247833
0.00251975
0.00255967
0.00259818
0.00263536
0.0026713
0.00270609
0.00273983
0.00277259
0.00280448
0.00283557
0.00286593
0.00289563
0.00292473
0.00295326
0.00298126
0.00300874
0.00303572
0.00306217
0.00308807
0.00311363
0.00313881
0.00316355
0.0031878
0.00321147
0.00323448
0.00325675
0.00327817
0.00329866
0.00331809
0.00333637
0.00335335
0.00336894
0.00338298
0.00339536
0.00340592
0.00341452
0.00342103
0.00342528
0.00342712
0.00342642
0.00342303
0.00341681
0.00340767
0.0033955
0.00338025
0.00336191
0.00334049
0.00331608
0.00328883
0.00325893
0.00322662
0.00319219
0.00315595
0.00311819
0.00307914
0.00303897
0.00299775
0.00295544
0.00291191
0.00286701
0.0028206
0.0027727
0.00272348
0.00267334
0.00262299
0.00257322
0.0025248
0.0024784
0.00243459
0.00239377
0.00235616
0.00232185
0.00229081
0.00226286
0.00223773
0.00221509
0.00219456
0.00217574
0.00215824
0.00214171
0.00212582
0.00211029
0.00209488
0.00207937
0.00206364
0.00204776
0.00203149
0.00201468
0.00199722
0.00197905
0.00196011
0.00194034
0.00191971
0.00189822
0.00187587
0.00185268
0.0018286
0.00180364
0.00177787
0.00175141
0.00172436
0.00169679
0.0016687
0.00164011
0.00161122
0.00158215
0.00155298
0.00152372
0.00149456
0.0014657
0.00143745
0.00140997
0.00138399
0.00135914
0.00133438
0.00131008
0.00128581
0.00126119
0.00123597
0.00120999
0.0011831
0.00115519
0.00112622
0.00109618
0.00106508
0.00103292
0.000999674
0.000965221
0.000929453
0.000892288
0.000111394
0.000302991
0.000490231
0.000645337
0.000768243
0.000863103
0.00093391
0.000984701
0.00101924
0.00104103
0.00105342
0.00105957
0.00106239
0.0010644
0.00106762
0.0010735
0.00108295
0.00109646
0.00111421
0.00113623
0.00116245
0.00119281
0.00122723
0.00126561
0.00130782
0.0013537
0.00140298
0.00145538
0.00151053
0.00156803
0.00162747
0.00168841
0.00175043
0.00181312
0.00187608
0.00193896
0.00200144
0.00206321
0.00212402
0.00218363
0.00224185
0.00229853
0.00235352
0.00240673
0.00245809
0.00250755
0.00255509
0.00260072
0.00264445
0.00268633
0.00272642
0.0027648
0.00280153
0.00283673
0.00287048
0.0029029
0.00293408
0.00296413
0.00299314
0.00302123
0.00304846
0.00307493
0.00310071
0.00312584
0.00315038
0.00317435
0.00319778
0.00322067
0.003243
0.00326496
0.00328652
0.00330763
0.00332826
0.00334833
0.0033678
0.00338658
0.00340461
0.00342181
0.00343811
0.00345343
0.00346768
0.00348078
0.00349264
0.00350316
0.00351224
0.00351979
0.00352568
0.0035298
0.00353202
0.00353222
0.00353027
0.00352601
0.00351934
0.00351013
0.00349828
0.00348372
0.00346641
0.00344638
0.00342369
0.00339847
0.00337092
0.00334129
0.00330987
0.00327696
0.00324284
0.00320773
0.00317175
0.00313491
0.00309708
0.00305805
0.00301754
0.00297534
0.00293137
0.00288574
0.00283896
0.00279172
0.00274472
0.00269864
0.00265417
0.00261185
0.0025721
0.0025352
0.00250125
0.00247023
0.00244198
0.00241623
0.00239268
0.00237095
0.00235067
0.00233148
0.00231303
0.002295
0.00227711
0.00225911
0.00224078
0.00222223
0.00220318
0.00218348
0.00216297
0.00214157
0.00211918
0.00209576
0.00207126
0.00204568
0.00201901
0.00199125
0.00196241
0.00193254
0.0019017
0.00186997
0.00183746
0.00180424
0.00177041
0.0017361
0.00170149
0.00166676
0.00163212
0.00159779
0.00156401
0.00153107
0.00149931
0.00146892
0.00144045
0.00141357
0.0013876
0.00136236
0.00133741
0.00131228
0.00128659
0.00125998
0.00123221
0.00120309
0.0011726
0.00114078
0.00110778
0.00107379
0.00103895
0.00100333
0.000966966
0.000929829
0.0001188
0.000320252
0.000518359
0.000683764
0.000815844
0.000918687
0.000996958
0.00105487
0.00109621
0.0011245
0.00114301
0.00115485
0.00116285
0.00116951
0.00117688
0.00118654
0.00119958
0.00121667
0.00123815
0.00126414
0.00129462
0.00132948
0.00136858
0.0014117
0.00145861
0.00150902
0.00156259
0.00161896
0.00167773
0.00173847
0.00180078
0.00186423
0.00192841
0.00199294
0.00205747
0.00212164
0.00218515
0.00224774
0.00230915
0.00236916
0.00242759
0.00248429
0.00253913
0.002592
0.00264283
0.00269158
0.00273823
0.00278278
0.00282525
0.00286567
0.00290413
0.00294068
0.00297541
0.00300843
0.00303984
0.00306975
0.00309828
0.00312554
0.00315164
0.00317668
0.00320077
0.003224
0.00324644
0.00326817
0.00328923
0.00330968
0.00332954
0.00334882
0.00336753
0.00338582
0.00340367
0.00342107
0.00343796
0.0034543
0.00347004
0.00348513
0.00349953
0.00351318
0.00352604
0.00353807
0.00354922
0.00355945
0.0035687
0.00357695
0.00358413
0.00359019
0.00359507
0.0035987
0.00360098
0.00360182
0.00360112
0.00359873
0.00359453
0.00358838
0.00358013
0.00356967
0.00355688
0.0035417
0.00352412
0.00350417
0.00348197
0.00345769
0.00343158
0.00340391
0.00337497
0.00334503
0.00331428
0.00328279
0.00325049
0.00321717
0.00318251
0.00314617
0.00310786
0.00306741
0.00302514
0.00298154
0.00293719
0.00289273
0.00284883
0.00280613
0.0027652
0.00272648
0.00269024
0.00265663
0.00262561
0.00259704
0.00257067
0.00254621
0.00252329
0.00250157
0.00248067
0.00246027
0.00244003
0.00241968
0.00239895
0.00237789
0.00235625
0.00233384
0.00231048
0.00228604
0.00226044
0.00223358
0.00220544
0.00217597
0.00214518
0.00211306
0.00207964
0.00204496
0.00200908
0.0019721
0.0019341
0.0018952
0.00185554
0.0018153
0.0017747
0.00173401
0.00169352
0.00165361
0.00161464
0.00157704
0.00154123
0.00150755
0.00147652
0.00144781
0.00142088
0.00139529
0.00137046
0.00134576
0.00132056
0.0012943
0.00126653
0.00123696
0.00120551
0.00117232
0.00113767
0.00110197
0.00106563
0.00102893
0.000992073
0.000955084
0.000124404
0.000333094
0.000539899
0.000714016
0.000854552
0.000965663
0.00105198
0.00111774
0.00116675
0.0012025
0.00122816
0.00124673
0.00126093
0.00127319
0.00128556
0.0012997
0.0013168
0.00133768
0.00136281
0.00139241
0.00142649
0.00146496
0.00150762
0.00155421
0.00160443
0.00165792
0.00171432
0.00177322
0.00183421
0.00189688
0.00196082
0.00202563
0.00209091
0.00215632
0.0022215
0.00228614
0.00234995
0.00241267
0.00247406
0.00253392
0.00259205
0.00264832
0.00270259
0.00275475
0.00280475
0.00285253
0.00289807
0.00294136
0.00298243
0.00302132
0.00305809
0.00309281
0.00312558
0.00315649
0.00318566
0.00321321
0.00323925
0.0032639
0.00328728
0.00330951
0.00333069
0.00335091
0.00337027
0.00338883
0.00340666
0.00342381
0.00344031
0.00345618
0.00347145
0.00348615
0.0035004
0.00351413
0.00352732
0.00353991
0.00355187
0.00356316
0.00357375
0.00358362
0.00359275
0.00360112
0.00360873
0.00361558
0.00362167
0.00362702
0.00363163
0.0036355
0.00363864
0.00364104
0.00364267
0.00364347
0.00364339
0.00364231
0.00364013
0.00363669
0.00363183
0.00362538
0.00361715
0.00360701
0.00359482
0.00358052
0.0035641
0.00354564
0.00352528
0.00350326
0.00347982
0.00345526
0.00342979
0.00340358
0.00337663
0.00334881
0.00331982
0.00328926
0.0032567
0.0032218
0.00318464
0.00314552
0.00310485
0.00306313
0.00302096
0.00297901
0.00293791
0.00289825
0.00286046
0.00282485
0.00279154
0.00276052
0.00273166
0.0027047
0.00267936
0.00265528
0.00263212
0.00260952
0.00258712
0.00256463
0.00254173
0.00251837
0.00249436
0.00246947
0.0024435
0.0024163
0.00238773
0.00235772
0.0023262
0.00229313
0.00225848
0.00222226
0.00218449
0.0021452
0.00210446
0.00206235
0.00201898
0.00197446
0.00192897
0.00188272
0.00183597
0.00178905
0.00174236
0.00169638
0.00165163
0.00160868
0.00156811
0.00153055
0.00149647
0.00146563
0.0014376
0.00141181
0.00138752
0.00136387
0.00133997
0.00131496
0.0012881
0.00125891
0.00122719
0.00119308
0.00115705
0.00111975
0.00108191
0.0010441
0.00100674
0.000969926
0.000127941
0.000341262
0.000554751
0.000736572
0.000885138
0.0010044
0.00109891
0.00117289
0.0012301
0.00127393
0.00130747
0.00133352
0.0013547
0.00137331
0.00139137
0.00141051
0.00143203
0.00145682
0.00148547
0.00151829
0.00155536
0.00159662
0.00164186
0.00169084
0.00174322
0.00179864
0.00185671
0.00191703
0.0019792
0.00204282
0.00210748
0.00217281
0.00223845
0.00230404
0.00236926
0.00243381
0.00249741
0.00255982
0.00262079
0.00268014
0.00273768
0.00279326
0.00284675
0.00289805
0.00294709
0.00299382
0.0030382
0.00308025
0.00311996
0.0031574
0.00319261
0.00322567
0.00325667
0.00328571
0.00331291
0.00333839