/*--------------------------------*- C++ -*----------------------------------*\
  =========                 |
  \\      /  F ield         | OpenFOAM: The Open Source CFD Toolbox
   \\    /   O peration     | Website:  https://openfoam.org
    \\  /    A nd           | Version:  9
     \\/     M anipulation  |
\*---------------------------------------------------------------------------*/
FoamFile
{
    format      ascii;
    class       volScalarField;
    location    "0.15";
    object      p;
}
// * * * * * * * * * * * * * * * * * * * * * * * * * * * * * * * * * * * * * //

dimensions      [0 2 -2 0 0 0 0];

internalField   nonuniform List<scalar> 
12225
(
0.597052
0.27754
0.180316
0.165018
0.156514
0.151537
0.151676
0.154966
0.160234
0.167417
0.176635
0.187979
0.201614
0.217833
0.237206
0.260538
0.288643
0.321471
0.190613
0.193072
0.176082
0.167743
0.159579
0.154335
0.154125
0.157215
0.162439
0.169684
0.179035
0.19057
0.20445
0.220968
0.240738
0.264766
0.295301
0.338356
0.151728
0.200332
0.18252
0.171042
0.163204
0.158137
0.157629
0.160447
0.16557
0.172852
0.182339
0.194097
0.20829
0.22522
0.245547
0.270306
0.301574
0.346296
0.1852
0.207869
0.18456
0.172506
0.165609
0.161079
0.160564
0.163269
0.168353
0.175675
0.185272
0.197215
0.211678
0.228981
0.249775
0.275001
0.306347
0.349109
0.193811
0.202587
0.182736
0.172596
0.166794
0.16298
0.162681
0.165411
0.170508
0.177861
0.187513
0.199545
0.214138
0.231605
0.252522
0.277657
0.308328
0.34737
0.188929
0.194586
0.180206
0.172008
0.167169
0.164112
0.164122
0.166931
0.172047
0.179389
0.189006
0.200987
0.215504
0.232833
0.253429
0.277847
0.307006
0.341514
0.183856
0.188244
0.177763
0.170975
0.166961
0.164616
0.164939
0.167822
0.172916
0.180166
0.189623
0.201372
0.215558
0.232395
0.252197
0.275296
0.302149
0.331778
0.180202
0.183129
0.175216
0.169549
0.166251
0.164523
0.165115
0.168025
0.173022
0.180067
0.189205
0.200504
0.21407
0.230039
0.248578
0.269795
0.293693
0.318416
0.176854
0.178475
0.172454
0.167763
0.165069
0.163838
0.164623
0.167488
0.172285
0.178985
0.187621
0.198233
0.210879
0.225606
0.242444
0.261295
0.281809
0.301838
0.173342
0.174051
0.169486
0.165639
0.163436
0.162576
0.163463
0.166191
0.170671
0.176878
0.184823
0.194514
0.205952
0.219104
0.233872
0.25
0.266928
0.282599
0.16959
0.169737
0.166264
0.163125
0.161307
0.16069
0.161573
0.164055
0.168087
0.173638
0.180696
0.189233
0.199193
0.21047
0.22287
0.236034
0.249341
0.261022
0.16616
0.165933
0.163198
0.160602
0.159065
0.15858
0.159376
0.161546
0.165057
0.169871
0.17595
0.183227
0.1916
0.2009
0.210869
0.221099
0.231019
0.239172
0.162603
0.16208
0.159919
0.157747
0.156395
0.155942
0.156557
0.158321
0.16121
0.165173
0.170145
0.176024
0.182662
0.189842
0.197259
0.20449
0.211028
0.215663
0.157895
0.157217
0.155514
0.153667
0.152384
0.151805
0.152053
0.153191
0.155196
0.158008
0.161536
0.165648
0.170163
0.174833
0.179335
0.183268
0.186224
0.187244
0.1519
0.151197
0.149801
0.148137
0.146769
0.145867
0.14552
0.145771
0.146599
0.147932
0.149663
0.151644
0.153678
0.155513
0.156844
0.157327
0.156684
0.154142
0.144449
0.143799
0.142543
0.140871
0.139212
0.137737
0.136518
0.135578
0.134892
0.134386
0.13395
0.133432
0.132644
0.131359
0.129316
0.126252
0.122039
0.116034
0.135455
0.134886
0.133603
0.131693
0.129495
0.127172
0.124785
0.122347
0.119833
0.117176
0.114274
0.110992
0.10717
0.102624
0.0971556
0.0905897
0.0829396
0.0736332
0.125034
0.124536
0.123057
0.120656
0.11764
0.114182
0.110343
0.106139
0.101555
0.0965426
0.0910211
0.0848878
0.0780229
0.0702958
0.0615709
0.0517523
0.0409688
0.0286904
0.113822
0.113401
0.111554
0.108384
0.104247
0.0993595
0.093804
0.0876171
0.0808091
0.0733598
0.0652233
0.0563368
0.046628
0.0360202
0.0244358
0.0118446
-0.00154417
-0.0162043
0.10598
0.105606
0.10329
0.0992482
0.0939824
0.0877784
0.0807429
0.0729392
0.064404
0.05514
0.0451249
0.0343233
0.0226943
0.0101957
-0.00321347
-0.0175293
-0.0325126
-0.0484834
0.102113
0.101749
0.0989418
0.094045
0.0877791
0.0804907
0.0722999
0.0632961
0.0535368
0.0430356
0.0317813
0.0197539
0.00693067
-0.00671123
-0.021192
-0.0364912
-0.0523651
-0.0690334
0.100775
0.100522
0.0971429
0.0912924
0.0840463
0.075776
0.0665955
0.0566261
0.0459366
0.0345363
0.0224144
0.0095572
-0.00404895
-0.0184164
-0.0335537
-0.0494329
-0.0658184
-0.0828376
0.101249
0.101391
0.0973349
0.0904124
0.0822191
0.0730518
0.0630132
0.0522721
0.0408919
0.0288592
0.0161545
0.00276437
-0.0113229
-0.0261157
-0.0416168
-0.0577967
-0.0744358
-0.09157
0.103014
0.103994
0.0990113
0.0909057
0.0818319
0.0718169
0.061008
0.0496501
0.0377684
0.0253066
0.0122317
-0.0014739
-0.0158257
-0.0308326
-0.046495
-0.0627846
-0.0795028
-0.0965977
0.106255
0.108701
0.101918
0.0923749
0.0824857
0.0716161
0.0600788
0.0482277
0.0359978
0.0232674
0.0099877
-0.00386737
-0.0183214
-0.0333872
-0.0490637
-0.0653259
-0.0819997
-0.0989513
0.110422
0.116689
0.106315
0.0945885
0.0837752
0.0719761
0.0597413
0.0475095
0.0350652
0.0222063
0.00886422
-0.00500125
-0.0194258
-0.034427
-0.0500025
-0.0661306
-0.0826658
-0.0994035
0.105428
0.12523
0.111485
0.097142
0.0850909
0.0722658
0.0594499
0.0470045
0.0345014
0.0216632
0.00840502
-0.00533458
-0.0196074
-0.0344355
-0.0498111
-0.0657156
-0.0820365
-0.0985214
0.0722722
0.121432
0.112338
0.0984745
0.0853729
0.0715763
0.0584987
0.0461615
0.0338533
0.0212413
0.00823995
-0.00521463
-0.0192019
-0.0337476
-0.0488307
-0.0644308
-0.0804698
-0.0966948
0.0855763
0.108318
0.105533
0.0971376
0.0840599
0.0695747
0.0566291
0.0447673
0.0329372
0.0207588
0.00815089
-0.0048773
-0.0184765
-0.0326587
-0.0473848
-0.0626254
-0.0783274
-0.0942941
0.482722
0.214963
0.119942
0.0990707
0.0840349
0.068853
0.055963
0.0443891
0.0328456
0.0209429
0.00867741
-0.00410691
-0.0174905
-0.0314511
-0.0459545
-0.0609639
-0.0764343
-0.0922344
-0.570458
-0.543827
-0.535874
-0.558978
-0.586211
-0.60972
-0.632459
-0.654313
-0.688902
-0.725776
-0.749777
-0.764795
-0.776929
-0.789515
-0.80047
-0.809785
-0.818422
-0.827727
-0.84336
-0.866105
-0.889716
-0.910152
-0.92686
-0.94962
-0.980628
-1.01634
-1.05663
-1.10211
-1.15338
-1.21132
-1.27681
-1.35052
-1.43309
-1.52509
-1.627
-1.73917
-1.86176
-1.99472
-2.13778
-2.29046
-2.45206
-2.62171
-2.7984
-2.98101
-3.16835
-3.35922
-3.55238
-3.74665
-3.94086
-4.13388
-4.32463
-4.51207
-4.69519
-4.87302
-5.04462
-5.20905
-5.3654
-5.51277
-5.65028
-5.77706
-5.89227
-5.9951
-6.08477
-6.16061
-6.22215
-6.26917
-6.3015
-6.31821
-6.3172
-6.29648
-6.25665
-6.19819
-6.12145
-6.02675
-5.91449
-5.78517
-5.63949
-5.47827
-5.30253
-5.11342
-4.91228
-4.70059
-4.47994
-4.25207
-4.01879
-3.78197
-3.54354
-3.30539
-3.06941
-2.83739
-2.61101
-2.3918
-2.18112
-1.98015
-1.78987
-1.61106
-1.44428
-1.2899
-1.1481
-1.0189
-0.902143
-0.79757
-0.704817
-0.623447
-0.552972
-0.492874
-0.442616
-0.401658
-0.369457
-0.345465
-0.329115
-0.32002
-0.317939
-0.321498
-0.329387
-0.344669
-0.366027
-0.387749
-0.411531
-0.435668
-0.454592
-0.491119
-0.543198
-0.585923
-0.625298
-0.668828
-0.695116
-0.725756
-0.762305
-0.775423
-0.791075
-0.810396
-0.825556
-0.831122
-0.831701
-0.828072
-0.816159
-0.796516
-0.766408
-0.742099
-0.729688
-0.712546
-0.66788
-0.59522
-0.539556
-0.495957
-0.441045
-0.38042
-0.321716
-0.24547
-0.165235
-0.10383
-0.0398589
0.0214382
0.0918604
0.163725
0.219472
0.2721
0.318583
0.358904
0.394294
0.423274
0.448182
0.46685
0.475076
0.479174
0.478791
0.471639
0.458387
0.440552
0.418594
0.393138
0.364923
0.334832
0.303987
0.273851
0.24655
0.225354
0.217739
0.225343
-0.596981
-0.585983
-0.587927
-0.606254
-0.631044
-0.657663
-0.682066
-0.711185
-0.739704
-0.758472
-0.777357
-0.797276
-0.808509
-0.80823
-0.804509
-0.800974
-0.799763
-0.801758
-0.808042
-0.821669
-0.839883
-0.857598
-0.876885
-0.898572
-0.925111
-0.956362
-0.992576
-1.03455
-1.08286
-1.13809
-1.2013
-1.27346
-1.35538
-1.44776
-1.55112
-1.66579
-1.79182
-1.92901
-2.07691
-2.2348
-2.40178
-2.57677
-2.75861
-2.94606
-3.13786
-3.33276
-3.52957
-3.72713
-3.92432
-4.12011
-4.3135
-4.50351
-4.68923
-4.86975
-5.04419
-5.21167
-5.37131
-5.52225
-5.66361
-5.79454
-5.91415
-6.02159
-6.11596
-6.19638
-6.26196
-6.31176
-6.34485
-6.3606
-6.35903
-6.34124
-6.30631
-6.25363
-6.18303
-6.09461
-5.98865
-5.86558
-5.726
-5.57067
-5.40054
-5.21669
-5.02038
-4.81299
-4.59606
-4.37123
-4.14026
-3.90494
-3.66714
-3.42874
-3.19156
-2.95741
-2.72797
-2.50479
-2.28929
-2.08272
-1.88615
-1.70048
-1.52639
-1.36439
-1.21481
-1.07779
-0.953329
-0.84129
-0.741421
-0.653378
-0.57675
-0.511072
-0.455841
-0.410531
-0.374605
-0.347516
-0.328742
-0.317812
-0.314338
-0.318613
-0.330262
-0.344049
-0.358494
-0.380511
-0.408812
-0.441716
-0.484353
-0.517201
-0.542288
-0.57671
-0.613041
-0.642985
-0.68199
-0.713334
-0.735468
-0.769445
-0.795078
-0.810678
-0.820116
-0.831808
-0.837036
-0.835108
-0.830015
-0.820503
-0.808085
-0.782586
-0.743455
-0.699226
-0.661959
-0.633095
-0.580926
-0.517519
-0.458542
-0.397232
-0.33042
-0.269153
-0.205431
-0.129465
-0.0610513
0.00582368
0.0669927
0.126313
0.189193
0.242424
0.290857
0.333176
0.368979
0.399569
0.424253
0.440321
0.451201
0.455726
0.45393
0.446008
0.433285
0.416193
0.395135
0.370711
0.343643
0.314819
0.285365
0.256708
0.230831
0.2102
0.200189
0.204992
-0.627239
-0.62246
-0.625985
-0.642244
-0.665105
-0.689901
-0.713978
-0.736414
-0.7572
-0.77407
-0.786794
-0.795442
-0.799243
-0.79872
-0.795675
-0.792044
-0.789599
-0.789801
-0.793806
-0.801504
-0.810875
-0.821451
-0.834598
-0.853065
-0.876814
-0.905933
-0.941129
-0.983463
-1.03402
-1.0937
-1.16322
-1.24316
-1.33395
-1.43583
-1.54882
-1.67274
-1.80719
-1.95161
-2.10526
-2.26731
-2.43683
-2.61285
-2.79436
-2.98036
-3.16983
-3.3618
-3.5553
-3.7494
-3.94318
-4.13575
-4.32624
-4.51377
-4.6975
-4.87655
-5.05009
-5.21724
-5.37715
-5.52894
-5.67175
-5.80471
-5.92695
-6.03761
-6.13585
-6.22084
-6.29175
-6.34767
-6.38762
-6.41081
-6.417
-6.4063
-6.37835
-6.33281
-6.26951
-6.18848
-6.08989
-5.97412
-5.84166
-5.69322
-5.52963
-5.35191
-5.16121
-4.95885
-4.74626
-4.525
-4.29673
-4.06319
-3.82618
-3.5875
-3.34898
-3.11237
-2.87935
-2.65152
-2.43033
-2.2171
-2.01299
-1.81901
-1.636
-1.46461
-1.30532
-1.15845
-1.02415
-0.902451
-0.793238
-0.696298
-0.611326
-0.537944
-0.475716
-0.424159
-0.382753
-0.350958
-0.328239
-0.31404
-0.30765
-0.308647
-0.316967
-0.33034
-0.347301
-0.369701
-0.397651
-0.430152
-0.468521
-0.504026
-0.535522
-0.570566
-0.606598
-0.640423
-0.677763
-0.710682
-0.737951
-0.768609
-0.794501
-0.813283
-0.827443
-0.83812
-0.843802
-0.843463
-0.838722
-0.830005
-0.816797
-0.792809
-0.758914
-0.719883
-0.683486
-0.648621
-0.59848
-0.539713
-0.481226
-0.420261
-0.356136
-0.295199
-0.229747
-0.157385
-0.0892388
-0.0234687
0.0368229
0.0979601
0.159103
0.212906
0.261832
0.304502
0.340878
0.371668
0.396745
0.413951
0.425509
0.430522
0.42977
0.423092
0.411581
0.395703
0.375918
0.352821
0.327136
0.299751
0.271774
0.244577
0.219988
0.200159
0.188804
0.187004
-0.642568
-0.648261
-0.656208
-0.670252
-0.688451
-0.707956
-0.726944
-0.744258
-0.759305
-0.771369
-0.779913
-0.784745
-0.786066
-0.784627
-0.781482
-0.777904
-0.77518
-0.774451
-0.776543
-0.781635
-0.789388
-0.800091
-0.814747
-0.834912
-0.861275
-0.894469
-0.935265
-0.984474
-1.04284
-1.11094
-1.18915
-1.27768
-1.37654
-1.4856
-1.6046
-1.73315
-1.87075
-2.01685
-2.1708
-2.33192
-2.49949
-2.67275
-2.85094
-3.03326
-3.21891
-3.40708
-3.59696
-3.78775
-3.97862
-4.16876
-4.35735
-4.54355
-4.72652
-4.90541
-5.07937
-5.24752
-5.40896
-5.56281
-5.70814
-5.84406
-5.96962
-6.08393
-6.18607
-6.27517
-6.35038
-6.41089
-6.4559
-6.48477
-6.49709
-6.49249
-6.47055
-6.43097
-6.37355
-6.29827
-6.20527
-6.09481
-5.96737
-5.82356
-5.66415
-5.49009
-5.30248
-5.10257
-4.89173
-4.67149
-4.44345
-4.20932
-3.97087
-3.72991
-3.48825
-3.24768
-3.0099
-2.77655
-2.54916
-2.32911
-2.11766
-1.91593
-1.72484
-1.54518
-1.37754
-1.22235
-1.07986
-0.950207
-0.833352
-0.729159
-0.637382
-0.557692
-0.489689
-0.432918
-0.386883
-0.351058
-0.32491
-0.307877
-0.299278
-0.298423
-0.30478
-0.317222
-0.334792
-0.357681
-0.385672
-0.418073
-0.454223
-0.491108
-0.527438
-0.564801
-0.602211
-0.639086
-0.67585
-0.71002
-0.741157
-0.770717
-0.796734
-0.817855
-0.834363
-0.846262
-0.852991
-0.854341
-0.850648
-0.842329
-0.828418
-0.806209
-0.776757
-0.742426
-0.706637
-0.667161
-0.618365
-0.563661
-0.506526
-0.44645
-0.384071
-0.321657
-0.254823
-0.185637
-0.118447
-0.053656
0.00811851
0.0711429
0.130949
0.185665
0.234612
0.276826
0.313555
0.344186
0.370307
0.389573
0.400951
0.407623
0.408614
0.403408
0.393093
0.378328
0.359641
0.337647
0.313075
0.286805
0.259907
0.233683
0.209768
0.189979
0.176471
0.170449
-0.617557
-0.632527
-0.645125
-0.65984
-0.676493
-0.693517
-0.709666
-0.724144
-0.736376
-0.745959
-0.752679
-0.756542
-0.757862
-0.757265
-0.755629
-0.753958
-0.753255
-0.754425
-0.758189
-0.765048
-0.775397
-0.789846
-0.809314
-0.834839
-0.867286
-0.907399
-0.955841
-1.01316
-1.07975
-1.15586
-1.24159
-1.33688
-1.44158
-1.55542
-1.67809
-1.80919
-1.94827
-2.09484
-2.24839
-2.40835
-2.57414
-2.74516
-2.92076
-3.1003
-3.28311
-3.46848
-3.65573
-3.84412
-4.03292
-4.22137
-4.40869
-4.59408
-4.77674
-4.95581
-5.13045
-5.29976
-5.46285
-5.61879
-5.76664
-5.90547
-6.03432
-6.15223
-6.25827
-6.35152
-6.43108
-6.4961
-6.54579
-6.57948
-6.59662
-6.59671
-6.5793
-6.54404
-6.49072
-6.41926
-6.32973
-6.22238
-6.0976
-5.95596
-5.79819
-5.62519
-5.43803
-5.23791
-5.02619
-4.80437
-4.57406
-4.33696
-4.09486
-3.84959
-3.603
-3.35692
-3.11313
-2.87334
-2.63915
-2.41203
-2.19335
-1.98429
-1.7859
-1.59904
-1.4244
-1.26247
-1.11358
-0.97789
-0.85542
-0.746047
-0.649535
-0.565553
-0.493693
-0.433488
-0.38443
-0.345984
-0.317603
-0.298719
-0.288705
-0.286871
-0.292481
-0.304616
-0.322573
-0.346102
-0.374672
-0.407615
-0.444077
-0.482105
-0.520644
-0.559926
-0.599197
-0.637737
-0.675551
-0.711242
-0.744109
-0.774762
-0.801788
-0.824309
-0.842469
-0.855898
-0.863981
-0.866784
-0.864431
-0.856809
-0.843381
-0.822872
-0.79554
-0.763225
-0.727721
-0.687484
-0.639965
-0.587074
-0.530942
-0.471654
-0.409785
-0.34659
-0.280131
-0.212115
-0.145274
-0.0802749
-0.0171859
0.0457976
0.105327
0.160475
0.209632
0.252117
0.289364
0.320555
0.347219
0.367651
0.379809
0.387613
0.389719
0.385666
0.376422
0.36266
0.344947
0.323912
0.300283
0.274918
0.248845
0.223283
0.199671
0.179564
0.16411
0.155418
-0.553055
-0.576671
-0.596746
-0.615421
-0.633538
-0.650665
-0.666186
-0.6797
-0.690969
-0.699873
-0.706444
-0.710913
-0.713722
-0.715502
-0.717028
-0.719136
-0.722655
-0.72836
-0.736947
-0.749052
-0.765306
-0.786431
-0.813252
-0.846606
-0.887227
-0.935723
-0.992572
-1.05811
-1.13254
-1.21592
-1.30818
-1.40917
-1.51867
-1.63639
-1.76201
-1.89516
-2.03545
-2.18248
-2.33582
-2.49499
-2.65954
-2.82896
-3.00274
-3.18032
-3.36114
-3.5446
-3.73009
-3.91696
-4.10452
-4.29206
-4.47887
-4.66415
-4.84712
-5.02694
-5.20275
-5.37366
-5.53874
-5.69706
-5.84765
-5.98952
-6.12169
-6.24318
-6.35299
-6.45017
-6.53378
-6.60292
-6.65675
-6.69452
-6.71561
-6.71944
-6.7055
-6.67342
-6.62294
-6.55392
-6.46641
-6.3606
-6.23684
-6.09567
-5.93777
-5.76402
-5.57546
-5.37328
-5.15885
-4.93364
-4.69928
-4.45751
-4.21013
-3.95904
-3.70612
-3.45328
-3.20239
-2.95522
-2.71346
-2.47871
-2.2524
-2.03583
-1.83013
-1.63624
-1.45494
-1.28677
-1.13212
-0.991197
-0.864023
-0.750487
-0.650346
-0.563246
-0.488747
-0.426343
-0.375483
-0.335589
-0.306072
-0.286335
-0.275749
-0.273637
-0.279274
-0.291823
-0.310554
-0.335017
-0.364597
-0.398516
-0.435846
-0.475177
-0.515526
-0.556554
-0.597592
-0.637953
-0.67718
-0.714393
-0.74899
-0.780859
-0.809149
-0.833128
-0.852633
-0.867339
-0.87677
-0.880845
-0.879594
-0.872854
-0.860103
-0.840703
-0.814977
-0.784011
-0.748798
-0.708461
-0.661822
-0.610081
-0.554602
-0.495788
-0.434227
-0.370668
-0.304473
-0.236967
-0.170038
-0.104525
-0.0405958
0.022283
0.0818339
0.137174
0.186766
0.230039
0.267965
0.299985
0.326969
0.347932
0.361251
0.369727
0.372496
0.369368
0.361079
0.348249
0.331449
0.311307
0.288537
0.26397
0.238584
0.213518
0.190038
0.169533
0.152519
0.141975
-0.459291
-0.490981
-0.51991
-0.544319
-0.565716
-0.584756
-0.601409
-0.615652
-0.62757
-0.637332
-0.645227
-0.651687
-0.657285
-0.662706
-0.6687
-0.676031
-0.685435
-0.697606
-0.713201
-0.732855
-0.757209
-0.786932
-0.822708
-0.865183
-0.914907
-0.972315
-1.03771
-1.11129
-1.19311
-1.28314
-1.38126
-1.4873
-1.60101
-1.72214
-1.85041
-1.98549
-2.12707
-2.27481
-2.42836
-2.58736
-2.7514
-2.92009
-3.09299
-3.26963
-3.44952
-3.63215
-3.81694
-4.00331
-4.19063
-4.37822
-4.56539
-4.75138
-4.9354
-5.11664
-5.29422
-5.46723
-5.63475
-5.79581
-5.9494
-6.09453
-6.23016
-6.35526
-6.46881
-6.56979
-6.65723
-6.73018
-6.78774
-6.8291
-6.85357
-6.8605
-6.84934
-6.81967
-6.77117
-6.70369
-6.6172
-6.51187
-6.38801
-6.24612
-6.08687
-5.9111
-5.71985
-5.51431
-5.29582
-5.0659
-4.82619
-4.57845
-4.32454
-4.0664
-3.80601
-3.54533
-3.28631
-3.03082
-2.78067
-2.53754
-2.30296
-2.07834
-1.86491
-1.66369
-1.47553
-1.30105
-1.14067
-0.99465
-0.863027
-0.745696
-0.642403
-0.552768
-0.476311
-0.412473
-0.360643
-0.320176
-0.290417
-0.270709
-0.260385
-0.258743
-0.265064
-0.278573
-0.298533
-0.324331
-0.355278
-0.390544
-0.429177
-0.470024
-0.512151
-0.554962
-0.597777
-0.639927
-0.680787
-0.719628
-0.755873
-0.789119
-0.818741
-0.844112
-0.864901
-0.880796
-0.891412
-0.896602
-0.896312
-0.890363
-0.878331
-0.859878
-0.835298
-0.805288
-0.770433
-0.730262
-0.684255
-0.63322
-0.578146
-0.519577
-0.458105
-0.394304
-0.328177
-0.260804
-0.193609
-0.127506
-0.0628718
0.000151663
0.059933
0.115554
0.165721
0.209895
0.248562
0.281353
0.308711
0.33007
0.344365
0.353378
0.356709
0.354368
0.346934
0.334969
0.319034
0.299738
0.277772
0.253934
0.229149
0.204484
0.181068
0.160181
0.141932
0.130072
-0.350994
-0.389964
-0.427261
-0.457604
-0.482914
-0.504741
-0.523563
-0.53967
-0.553408
-0.565202
-0.575556
-0.585073
-0.594446
-0.604426
-0.615775
-0.629228
-0.645468
-0.665126
-0.688789
-0.717019
-0.750363
-0.789362
-0.834534
-0.88634
-0.945161
-1.01128
-1.08488
-1.16604
-1.25476
-1.35098
-1.45455
-1.56531
-1.68305
-1.80755
-1.93858
-2.07587
-2.21918
-2.36822
-2.52271
-2.68236
-2.84683
-3.01579
-3.18886
-3.36564
-3.54569
-3.72855
-3.91371
-4.10061
-4.28866
-4.47723
-4.66563
-4.85313
-5.03895
-5.22227
-5.40222
-5.57788
-5.7483
-5.9125
-6.06944
-6.21809
-6.35738
-6.48624
-6.6036
-6.70841
-6.79962
-6.87625
-6.93735
-6.98202
-7.00954
-7.0192
-7.0104
-6.98265
-6.9356
-6.86904
-6.78293
-6.67737
-6.55264
-6.40922
-6.24776
-6.06907
-5.87418
-5.66428
-5.44073
-5.20506
-4.95893
-4.70416
-4.44266
-4.17641
-3.90748
-3.63792
-3.36976
-3.10501
-2.84554
-2.59316
-2.34952
-2.11613
-1.89432
-1.68522
-1.48974
-1.30858
-1.14223
-0.990963
-0.854853
-0.733799
-0.627535
-0.535655
-0.457635
-0.39286
-0.340644
-0.300264
-0.270976
-0.252042
-0.24273
-0.242279
-0.249941
-0.264957
-0.286575
-0.314088
-0.34674
-0.383679
-0.42396
-0.466556
-0.510556
-0.555242
-0.599907
-0.643858
-0.68643
-0.72694
-0.764788
-0.799473
-0.830439
-0.857123
-0.87914
-0.89616
-0.907847
-0.914031
-0.914605
-0.909374
-0.898029
-0.880394
-0.856693
-0.827399
-0.792881
-0.752925
-0.707359
-0.656769
-0.60194
-0.543465
-0.481931
-0.417874
-0.351629
-0.284124
-0.21653
-0.149784
-0.0844413
-0.0210239
0.0391932
0.0952843
0.146137
0.191207
0.230643
0.264158
0.291962
0.313725
0.328793
0.338314
0.342179
0.34053
0.333866
0.322706
0.307588
0.289099
0.267897
0.244742
0.220509
0.196198
0.172829
0.151617
0.132416
0.11963
-0.241714
-0.286064
-0.330225
-0.365795
-0.394872
-0.419718
-0.441183
-0.45978
-0.476065
-0.490654
-0.504217
-0.517483
-0.531234
-0.546273
-0.563376
-0.583266
-0.606589
-0.633918
-0.665762
-0.702584
-0.744815
-0.792852
-0.847053
-0.907726
-0.975109
-1.04937
-1.1306
-1.21881
-1.31398
-1.41602
-1.5248
-1.64018
-1.76198
-1.89003
-2.02413
-2.16408
-2.30967
-2.46068
-2.61688
-2.77801
-2.94382
-3.11399
-3.28821
-3.46613
-3.64735
-3.83144
-4.01794
-4.20632
-4.39602
-4.58644
-4.77689
-4.96667
-5.155
-5.34107
-5.52399
-5.70285
-5.87667
-6.04444
-6.20511
-6.35761
-6.50084
-6.63367
-6.75501
-6.86375
-6.95881
-7.03913
-7.10372
-7.15164
-7.18208
-7.19429
-7.18762
-7.16154
-7.11564
-7.04967
-6.96353
-6.8573
-6.73123
-6.58574
-6.42147
-6.23923
-6.04002
-5.82504
-5.59565
-5.35341
-5.10001
-4.83731
-4.56727
-4.29197
-4.01352
-3.73409
-3.45581
-3.18079
-2.91104
-2.64848
-2.3949
-2.15191
-1.92096
-1.70329
-1.4999
-1.31157
-1.13885
-0.982053
-0.841278
-0.71643
-0.607231
-0.513244
-0.4339
-0.368518
-0.316337
-0.276539
-0.248285
-0.230736
-0.223069
-0.224441
-0.234046
-0.251094
-0.274803
-0.304403
-0.339092
-0.378004
-0.420215
-0.464763
-0.51075
-0.557399
-0.603972
-0.649758
-0.694069
-0.736241
-0.775661
-0.811781
-0.844072
-0.872013
-0.895195
-0.913276
-0.925955
-0.933043
-0.934398
-0.929836
-0.91913
-0.902189
-0.879188
-0.850447
-0.816222
-0.776465
-0.731195
-0.680884
-0.626185
-0.567696
-0.505999
-0.441636
-0.375115
-0.307285
-0.239175
-0.171721
-0.105617
-0.041591
0.0192571
0.0760039
0.127654
0.173641
0.213884
0.248126
0.276442
0.298644
0.314363
0.324374
0.328749
0.327725
0.321763
0.311355
0.297016
0.279303
0.258841
0.236348
0.212646
0.188675
0.165377
0.143922
0.124023
0.110579
-0.141856
-0.189329
-0.238202
-0.277674
-0.309815
-0.337357
-0.361411
-0.382636
-0.401733
-0.41945
-0.436561
-0.453871
-0.472209
-0.492396
-0.515214
-0.54137
-0.571478
-0.606063
-0.645564
-0.690356
-0.74076
-0.797051
-0.85946
-0.92817
-1.00331
-1.08496
-1.17315
-1.26786
-1.36904
-1.47658
-1.5904
-1.71035
-1.8363
-1.96811
-2.10561
-2.24866
-2.39707
-2.55067
-2.70927
-2.87265
-3.0406
-3.21283
-3.38908
-3.56903
-3.75231
-3.93853
-4.12724
-4.31796
-4.51015
-4.7032
-4.89647
-5.08925
-5.28077
-5.47022
-5.6567
-5.83929
-6.01699
-6.18878
-6.35358
-6.51029
-6.65776
-6.79485
-6.9204
-7.03326
-7.1323
-7.21644
-7.28461
-7.33581
-7.36917
-7.38392
-7.37934
-7.35484
-7.30997
-7.24444
-7.15809
-7.05096
-6.92327
-6.77541
-6.60798
-6.42178
-6.2178
-5.99722
-5.76144
-5.512
-5.25065
-4.97929
-4.69994
-4.41473
-4.1259
-3.83568
-3.54634
-3.2601
-2.97911
-2.70543
-2.44097
-2.18751
-1.94661
-1.71962
-1.50767
-1.31162
-1.13208
-0.9694
-0.823723
-0.694948
-0.582782
-0.486753
-0.406236
-0.340482
-0.288643
-0.249806
-0.223023
-0.207346
-0.201843
-0.205567
-0.217627
-0.237178
-0.263387
-0.295429
-0.332467
-0.373625
-0.417997
-0.464661
-0.512733
-0.561407
-0.609924
-0.657556
-0.703607
-0.747417
-0.788366
-0.825891
-0.859469
-0.888608
-0.912893
-0.93198
-0.94558
-0.953494
-0.955565
-0.951623
-0.941502
-0.925156
-0.902718
-0.874414
-0.840442
-0.800858
-0.755786
-0.70564
-0.650986
-0.592406
-0.530477
-0.465759
-0.398848
-0.330556
-0.261832
-0.193604
-0.126664
-0.0618561
-0.000203281
0.0573689
0.109935
0.156895
0.198009
0.23302
0.261925
0.284621
0.300934
0.311429
0.316299
0.315854
0.310543
0.300844
0.287252
0.270296
0.250565
0.22873
0.205563
0.18195
0.158769
0.137167
0.11679
0.10287
-0.0583653
-0.106575
-0.157671
-0.199247
-0.233303
-0.262796
-0.288968
-0.312559
-0.334348
-0.35515
-0.375786
-0.397084
-0.419877
-0.444978
-0.473149
-0.505074
-0.54134
-0.582429
-0.628731
-0.680551
-0.738129
-0.801648
-0.871246
-0.947015
-1.02901
-1.11724
-1.21169
-1.31232
-1.41906
-1.53181
-1.65048
-1.77496
-1.90513
-2.04087
-2.18207
-2.32858
-2.48027
-2.637
-2.79859
-2.96487
-3.13563
-3.31065
-3.48968
-3.67241
-3.85852
-4.04763
-4.23933
-4.43313
-4.62853
-4.82493
-5.02169
-5.21812
-5.41344
-5.60684
-5.79742
-5.98424
-6.1663
-6.34254
-6.51185
-6.67312
-6.82515
-6.96678
-7.0968
-7.21401
-7.31725
-7.40537
-7.47727
-7.53188
-7.56827
-7.58563
-7.5832
-7.56033
-7.51652
-7.45142
-7.36484
-7.25677
-7.12738
-6.97703
-6.8063
-6.61594
-6.40694
-6.18048
-5.93793
-5.68089
-5.41112
-5.13054
-4.84126
-4.54548
-4.24551
-3.94371
-3.64246
-3.34411
-3.05097
-2.76525
-2.48902
-2.2242
-1.97253
-1.73548
-1.5143
-1.30994
-1.1231
-0.954193
-0.803362
-0.670515
-0.555334
-0.457299
-0.375723
-0.309778
-0.258523
-0.22094
-0.19597
-0.182547
-0.179617
-0.186117
-0.201051
-0.223498
-0.252561
-0.287358
-0.327016
-0.370652
-0.417371
-0.466277
-0.516504
-0.567235
-0.617701
-0.667166
-0.714931
-0.760334
-0.802759
-0.841636
-0.876448
-0.906719
-0.93204
-0.952068
-0.966521
-0.975194
-0.977922
-0.974554
-0.964964
-0.949129
-0.927152
-0.899203
-0.86545
-0.826012
-0.781076
-0.731018
-0.676351
-0.61763
-0.555427
-0.490321
-0.422951
-0.354108
-0.284697
-0.21564
-0.147794
-0.0820725
-0.0194716
0.0390748
0.0926732
0.140686
0.182757
0.218616
0.248206
0.271471
0.288374
0.299369
0.304737
0.304843
0.300147
0.291123
0.278255
0.262047
0.243048
0.221883
0.199273
0.176054
0.153055
0.131404
0.11074
0.0964711
0.0063337
-0.0409139
-0.0916458
-0.133353
-0.167986
-0.198478
-0.226064
-0.251506
-0.275603
-0.299178
-0.323047
-0.348021
-0.374903
-0.404471
-0.43745
-0.474493
-0.516152
-0.562881
-0.615031
-0.672862
-0.736561
-0.806252
-0.882007
-0.96386
-1.05181
-1.14583
-1.24586
-1.35185
-1.46371
-1.58134
-1.70467
-1.83359
-1.968
-2.1078
-2.25288
-2.40314
-2.55846
-2.71872
-2.88377
-3.05345
-3.22759
-3.40598
-3.58838
-3.77452
-3.96408
-4.15672
-4.35203
-4.54955
-4.74876
-4.9491
-5.14993
-5.35056
-5.55021
-5.74806
-5.94321
-6.1347
-6.32151
-6.50257
-6.67675
-6.84289
-6.99979
-7.14622
-7.28095
-7.40275
-7.51039
-7.60269
-7.67849
-7.73668
-7.77626
-7.79638
-7.79623
-7.77512
-7.7325
-7.66796
-7.58126
-7.47235
-7.34135
-7.18858
-7.01457
-6.82007
-6.60602
-6.37359
-6.12416
-5.85932
-5.58086
-5.29075
-4.99113
-4.68429
-4.37262
-4.0586
-3.74472
-3.4335
-3.1274
-2.82878
-2.53993
-2.26293
-1.99968
-1.75183
-1.52075
-1.30753
-1.11294
-0.93744
-0.781216
-0.644162
-0.525924
-0.425924
-0.343396
-0.277421
-0.226954
-0.190863
-0.167973
-0.157095
-0.157051
-0.166647
-0.184775
-0.210424
-0.242619
-0.280421
-0.322915
-0.369205
-0.418406
-0.469641
-0.522059
-0.574848
-0.627239
-0.678494
-0.727916
-0.774848
-0.818675
-0.858832
-0.894807
-0.926135
-0.952417
-0.973316
-0.98855
-0.997913
-1.00124
-0.998396
-0.989283
-0.973889
-0.952295
-0.924641
-0.89108
-0.851768
-0.806924
-0.756908
-0.702191
-0.643304
-0.58081
-0.515301
-0.447437
-0.377998
-0.307859
-0.237938
-0.169138
-0.102413
-0.0387576
0.0208817
0.0756177
0.124771
0.167899
0.204707
0.235093
0.259026
0.276559
0.288094
0.293979
0.294631
0.290529
0.282158
0.269997
0.254531
0.236273
0.215802
0.193787
0.171013
0.148271
0.126672
0.105881
0.0913548
0.05318
0.00814625
-0.0400058
-0.0801218
-0.114099
-0.144631
-0.172867
-0.199542
-0.225428
-0.251314
-0.277976
-0.306175
-0.336663
-0.370163
-0.407351
-0.448836
-0.495136
-0.546676
-0.603779
-0.666681
-0.735536
-0.810432
-0.891406
-0.978453
-1.07154
-1.17061
-1.27559
-1.3864
-1.50294
-1.62514
-1.75289
-1.88611
-2.02471
-2.16859
-2.31766
-2.47184
-2.63102
-2.79509
-2.96393
-3.13739
-3.3153
-3.49749
-3.68372
-3.87373
-4.06724
-4.26389
-4.46329
-4.665
-4.86851
-5.07325
-5.2786
-5.48385
-5.68824
-5.89093
-6.09102
-6.28752
-6.47941
-6.66559
-6.84492
-7.01619
-7.17818
-7.32963
-7.46928
-7.59584
-7.70806
-7.80471
-7.88459
-7.94655
-7.98949
-8.01253
-8.01484
-7.99569
-7.95445
-7.89068
-7.80408
-7.69455
-7.56216
-7.4072
-7.23014
-7.03169
-6.81278
-6.57454
-6.31834
-6.04577
-5.75863
-5.45891
-5.14881
-4.83068
-4.50698
-4.18031
-3.8533
-3.5286
-3.20886
-2.89663
-2.5944
-2.30444
-2.02887
-1.76951
-1.52791
-1.30527
-1.10248
-0.920068
-0.758231
-0.616854
-0.495538
-0.393627
-0.310263
-0.244418
-0.194923
-0.160524
-0.139924
-0.131809
-0.134872
-0.147785
-0.169324
-0.198379
-0.233899
-0.274877
-0.320352
-0.369414
-0.421178
-0.474781
-0.529389
-0.584203
-0.638461
-0.691433
-0.742429
-0.790799
-0.835935
-0.877278
-0.914325
-0.946623
-0.973781
-0.995468
-1.01141
-1.02139
-1.02526
-1.02288
-1.01419
-0.999175
-0.977904
-0.950497
-0.917104
-0.8779
-0.833124
-0.78312
-0.728333
-0.669271
-0.606488
-0.540581
-0.472218
-0.402168
-0.331291
-0.260499
-0.190726
-0.12295
-0.0581734
0.00263961
0.0585931
0.108966
0.15325
0.191116
0.222416
0.247129
0.265366
0.277506
0.28395
0.285163
0.281652
0.273921
0.262457
0.247732
0.230229
0.210482
0.189107
0.166841
0.144437
0.12299
0.102214
0.0874981
0.0843067
0.0429717
-0.000882244
-0.0380307
-0.0702705
-0.0999587
-0.128108
-0.155394
-0.182529
-0.210233
-0.239215
-0.270169
-0.303775
-0.340691
-0.381533
-0.426856
-0.477143
-0.532785
-0.594087
-0.661267
-0.734462
-0.813744
-0.899133
-0.990606
-1.08811
-1.19158
-1.30091
-1.41603
-1.53684
-1.66324
-1.79515
-1.93247
-2.07512
-2.22302
-2.37609
-2.53424
-2.69738
-2.86541
-3.03821
-3.21566
-3.3976
-3.58385
-3.7742
-3.9684
-4.16616
-4.36714
-4.57097
-4.77719
-4.98532
-5.19478
-5.40495
-5.61512
-5.82452
-6.03231
-6.23757
-6.43931
-6.63649
-6.82797
-7.01261
-7.18916
-7.35639
-7.513
-7.65768
-7.78914
-7.90607
-8.00719
-8.09129
-8.15715
-8.20363
-8.22978
-8.23475
-8.21777
-8.17817
-8.11544
-8.02925
-7.91943
-7.78602
-7.62924
-7.44953
-7.24756
-7.02419
-6.78054
-6.51796
-6.23801
-5.9425
-5.63342
-5.31301
-4.98365
-4.64791
-4.30845
-3.96805
-3.62951
-3.29566
-2.96926
-2.65302
-2.34945
-2.06089
-1.78937
-1.53664
-1.30407
-1.09266
-0.903006
-0.735348
-0.589548
-0.465149
-0.361399
-0.277325
-0.211777
-0.163436
-0.130899
-0.112747
-0.10754
-0.113843
-0.130197
-0.155259
-0.187826
-0.226767
-0.271005
-0.319526
-0.371402
-0.425747
-0.481707
-0.538462
-0.595231
-0.651268
-0.705854
-0.758313
-0.808005
-0.854334
-0.896752
-0.934764
-0.967929
-0.995865
-1.01825
-1.03481
-1.04534
-1.04968
-1.04772
-1.03939
-1.0247
-1.00369
-0.976496
-0.943248
-0.904137
-0.85941
-0.809404
-0.754538
-0.695305
-0.632247
-0.565959
-0.497111
-0.426463
-0.354862
-0.283218
-0.21248
-0.143643
-0.0777205
-0.0156953
0.0415217
0.0931719
0.138696
0.177718
0.210044
0.235653
0.254687
0.267517
0.274583
0.276391
0.273483
0.266393
0.25562
0.241635
0.224901
0.205911
0.185229
0.163539
0.141559
0.120359
0.0997232
0.0848745
0.102873
0.066572
0.0285007
-0.00442314
-0.0338979
-0.0619037
-0.0892856
-0.116623
-0.144529
-0.173625
-0.204529
-0.237845
-0.274172
-0.314091
-0.358148
-0.406841
-0.460606
-0.519806
-0.584722
-0.655559
-0.732448
-0.815457
-0.904601
-0.999852
-1.10115
-1.20843
-1.32159
-1.44054
-1.56518
-1.69541
-1.83115
-1.97231
-2.11881
-2.27057
-2.42752
-2.58957
-2.75664
-2.92864
-3.10545
-3.28696
-3.47303
-3.66346
-3.85806
-4.05659
-4.25877
-4.46425
-4.67267
-4.88358
-5.09649
-5.31082
-5.52596
-5.7412
-5.95575
-6.16877
-6.37932
-6.5864
-6.78894
-6.98581
-7.17581
-7.35771
-7.53022
-7.69203
-7.8418
-7.9782
-8.0999
-8.20558
-8.29398