/*--------------------------------*- C++ -*----------------------------------*\
  =========                 |
  \\      /  F ield         | OpenFOAM: The Open Source CFD Toolbox
   \\    /   O peration     | Website:  https://openfoam.org
    \\  /    A nd           | Version:  9
     \\/     M anipulation  |
\*---------------------------------------------------------------------------*/
FoamFile
{
    format      ascii;
    class       surfaceScalarField;
    location    "0.15";
    object      phi;
}
// * * * * * * * * * * * * * * * * * * * * * * * * * * * * * * * * * * * * * //

dimensions      [0 3 -1 0 0 0 0];

internalField   nonuniform List<scalar> 
24170
(
3.0471e-07
1.4131e-08
2.65703e-07
3.9007e-08
2.35447e-07
3.02554e-08
2.11124e-07
2.43228e-08
1.92398e-07
1.87261e-08
1.78176e-07
1.42222e-08
1.66424e-07
1.17525e-08
1.55735e-07
1.06882e-08
1.45412e-07
1.03235e-08
1.35121e-07
1.02905e-08
1.24689e-07
1.04327e-08
1.14032e-07
1.06569e-08
1.03162e-07
1.08703e-08
9.22111e-08
1.09504e-08
8.15046e-08
1.07065e-08
7.18357e-08
9.66894e-09
6.63854e-08
5.45029e-09
1.20814e-08
5.4304e-08
3.46518e-07
9.33776e-09
3.37308e-07
4.82173e-08
3.22075e-07
4.54883e-08
3.06599e-07
3.97992e-08
2.91971e-07
3.33536e-08
2.78564e-07
2.76289e-08
2.66241e-07
2.4076e-08
2.54525e-07
2.2404e-08
2.42948e-07
2.19008e-08
2.31138e-07
2.21e-08
2.18819e-07
2.2752e-08
2.05789e-07
2.36868e-08
1.91914e-07
2.47452e-08
1.77135e-07
2.57298e-08
1.61412e-07
2.64294e-08
1.44676e-07
2.64046e-08
1.25385e-07
2.47416e-08
3.79872e-08
9.9479e-08
3.64987e-07
1.06028e-08
3.66451e-07
4.67528e-08
3.60965e-07
5.09749e-08
3.52431e-07
4.8333e-08
3.42202e-07
4.35819e-08
3.31265e-07
3.85659e-08
3.2022e-07
3.51218e-08
3.09154e-07
3.34692e-08
2.97903e-07
3.31525e-08
2.86223e-07
3.37792e-08
2.73878e-07
3.50976e-08
2.60649e-07
3.69159e-08
2.46336e-07
3.90575e-08
2.3074e-07
4.13265e-08
2.13589e-07
4.35802e-08
1.94401e-07
4.55926e-08
1.71499e-07
4.76435e-08
6.32335e-08
1.46253e-07
3.91707e-07
1.14345e-08
3.94474e-07
4.39857e-08
3.92873e-07
5.25761e-08
3.88063e-07
5.31435e-08
3.8092e-07
5.07245e-08
3.72239e-07
4.72471e-08
3.62697e-07
4.4664e-08
3.52604e-07
4.35615e-08
3.4199e-07
4.37664e-08
3.30742e-07
4.50276e-08
3.1869e-07
4.71501e-08
3.05639e-07
4.99662e-08
2.91375e-07
5.33218e-08
2.75634e-07
5.70673e-08
2.5807e-07
6.11445e-08
2.38136e-07
6.55264e-08
2.14731e-07
7.10488e-08
8.75272e-08
1.90437e-07
4.20661e-07
1.14859e-08
4.23427e-07
4.12203e-08
4.23576e-07
5.24264e-08
4.20977e-07
5.57426e-08
4.16028e-07
5.56742e-08
4.09218e-07
5.40564e-08
4.01112e-07
5.27698e-08
3.92071e-07
5.26026e-08
3.82223e-07
5.36145e-08
3.71547e-07
5.57039e-08
3.59939e-07
5.87583e-08
3.47242e-07
6.26623e-08
3.33256e-07
6.73088e-08
3.17712e-07
7.26104e-08
3.00277e-07
7.85795e-08
2.80489e-07
8.53145e-08
2.57748e-07
9.37901e-08
1.1062e-07
2.34655e-07
4.5114e-07
1.12546e-08
4.53799e-07
3.85615e-08
4.54858e-07
5.13669e-08
4.53667e-07
5.69344e-08
4.503e-07
5.90403e-08
4.45004e-07
5.93525e-08
4.38191e-07
5.95833e-08
4.30191e-07
6.06025e-08
4.21169e-07
6.26369e-08
4.11158e-07
6.57143e-08
4.00108e-07
6.98082e-08
3.87905e-07
7.48655e-08
3.7438e-07
8.08342e-08
3.59305e-07
8.76855e-08
3.42408e-07
9.54756e-08
3.23369e-07
1.04354e-07
3.01955e-07
1.15204e-07
1.32154e-07
2.80421e-07
4.83548e-07
1.09781e-08
4.86055e-07
3.60546e-08
4.87579e-07
4.98429e-08
4.87292e-07
5.72221e-08
4.85071e-07
6.12613e-08
4.80983e-07
6.34402e-08
4.75301e-07
6.52657e-08
4.68292e-07
6.76112e-08
4.60119e-07
7.08101e-08
4.50843e-07
7.499e-08
4.40452e-07
8.01989e-08
4.28874e-07
8.64437e-08
4.15986e-07
9.37225e-08
4.01622e-07
1.0205e-07
3.85601e-07
1.11496e-07
3.67749e-07
1.22206e-07
3.48101e-07
1.34852e-07
1.51788e-07
3.28467e-07
5.18232e-07
1.07039e-08
5.20518e-07
3.37689e-08
5.22235e-07
4.81261e-08
5.22517e-07
5.69399e-08
5.21122e-07
6.26565e-08
5.17994e-07
6.65676e-08
5.1329e-07
6.99701e-08
5.07207e-07
7.36938e-08
4.99887e-07
7.81304e-08
4.91401e-07
8.34758e-08
4.81764e-07
8.98357e-08
4.70943e-07
9.72647e-08
4.58867e-07
1.05799e-07
4.45442e-07
1.15475e-07
4.30584e-07
1.26355e-07
4.14255e-07
1.38535e-07
3.96659e-07
1.52448e-07
1.69264e-07
3.79183e-07
5.55405e-07
1.04327e-08
5.57424e-07
3.17503e-08
5.59167e-07
4.63829e-08
5.59795e-07
5.63119e-08
5.58995e-07
6.34567e-08
5.56633e-07
6.89295e-08
5.52774e-07
7.38288e-08
5.47553e-07
7.89149e-08
5.41082e-07
8.46012e-08
5.33434e-07
9.11237e-08
5.24644e-07
9.8626e-08
5.14714e-07
1.07195e-07
5.03624e-07
1.16888e-07
4.91354e-07
1.27745e-07
4.77908e-07
1.39801e-07
4.63358e-07
1.53085e-07
4.47999e-07
1.67807e-07
1.84392e-07
4.32871e-07
5.95246e-07
1.01644e-08
5.96991e-07
3.00051e-08
5.98666e-07
4.47082e-08
5.99493e-07
5.54849e-08
5.99125e-07
6.38239e-08
5.97383e-07
7.06715e-08
5.94266e-07
7.69465e-08
5.89853e-07
8.33273e-08
5.84232e-07
9.02222e-08
5.77472e-07
9.78843e-08
5.69621e-07
1.06476e-07
5.60716e-07
1.16101e-07
5.50784e-07
1.26819e-07
5.39869e-07
1.38661e-07
5.28049e-07
1.5162e-07
5.15475e-07
1.65659e-07
5.02474e-07
1.80808e-07
1.97041e-07
4.89824e-07
6.37948e-07
9.89762e-09
6.39442e-07
2.85115e-08
6.41008e-07
4.31421e-08
6.41949e-07
5.45437e-08
6.41912e-07
6.38606e-08
6.40695e-07
7.18892e-08
6.3825e-07
7.93914e-08
6.34618e-07
8.69592e-08
6.29863e-07
9.49775e-08
6.2405e-07
1.03697e-07
6.17241e-07
1.13285e-07
6.095e-07
1.23842e-07
6.00896e-07
1.35423e-07
5.91522e-07
1.48035e-07
5.81513e-07
1.61629e-07
5.71062e-07
1.7611e-07
5.60489e-07
1.91382e-07
2.07167e-07
5.50363e-07
5.74303e-07
9.67804e-09
5.75378e-07
2.74365e-08
5.76608e-07
4.19123e-08
5.77455e-07
5.36966e-08
5.77628e-07
6.36873e-08
5.76955e-07
7.25621e-08
5.75376e-07
8.09709e-08
5.72902e-07
8.94334e-08
5.69575e-07
9.83043e-08
5.6545e-07
1.07822e-07
5.60589e-07
1.18145e-07
5.55063e-07
1.29368e-07
5.48957e-07
1.4153e-07
5.42378e-07
1.54614e-07
5.35464e-07
1.68543e-07
5.28392e-07
1.83183e-07
5.21403e-07
1.98371e-07
2.13701e-07
5.14868e-07
7.00074e-07
9.41969e-09
7.01159e-07
2.63511e-08
7.0247e-07
4.06018e-08
7.03488e-07
5.26782e-08
7.03904e-07
6.32719e-08
7.0352e-07
7.29459e-08
7.02255e-07
8.22359e-08
7.00105e-07
9.15828e-08
6.9711e-07
1.013e-07
6.93329e-07
1.11602e-07
6.88845e-07
1.2263e-07
6.83752e-07
1.3446e-07
6.78171e-07
1.47111e-07
6.72245e-07
1.60539e-07
6.66149e-07
1.74639e-07
6.60088e-07
1.89244e-07
6.54321e-07
2.04138e-07
2.18797e-07
6.49224e-07
8.53387e-07
9.11765e-09
8.54478e-07
2.52601e-08
8.55884e-07
3.91958e-08
8.57122e-07
5.14397e-08
8.5788e-07
6.25138e-08
8.5795e-07
7.28762e-08
8.57234e-07
8.29524e-08
8.55716e-07
9.31001e-08
8.53435e-07
1.03581e-07
8.50461e-07
1.14576e-07
8.46896e-07
1.26195e-07
8.42866e-07
1.38491e-07
8.38524e-07
1.51453e-07
8.3405e-07
1.65013e-07
8.29648e-07
1.79041e-07
8.2554e-07
1.93352e-07
8.21981e-07
2.07697e-07
2.21499e-07
8.1928e-07
1.04029e-06
8.74653e-09
1.04145e-06
2.41015e-08
1.04306e-06
3.75901e-08
1.04467e-06
4.98247e-08
1.046e-06
6.11909e-08
1.04682e-06
7.20496e-08
1.04705e-06
8.27263e-08
1.04665e-06
9.34947e-08
1.04568e-06
1.04557e-07
1.0442e-06
1.16049e-07
1.04236e-06
1.28044e-07
1.04028e-06
1.40563e-07
1.03817e-06
1.53568e-07
1.03621e-06
1.6697e-07
1.03463e-06
1.80623e-07
1.03364e-06
1.9434e-07
1.03347e-06
2.07868e-07
2.20631e-07
1.03434e-06
1.26817e-06
8.25493e-09
1.26956e-06
2.2708e-08
1.27162e-06
3.55363e-08
1.27394e-06
4.74983e-08
1.27626e-06
5.88759e-08
1.27837e-06
6.9938e-08
1.28018e-06
8.09197e-08
1.28166e-06
9.20125e-08
1.28286e-06
1.03355e-07
1.28388e-06
1.15031e-07
1.28485e-06
1.27075e-07
1.28594e-06
1.39476e-07
1.28733e-06
1.52172e-07
1.28924e-06
1.6506e-07
1.29187e-06
1.77995e-07
1.29541e-06
1.90802e-07
1.30003e-06
2.03248e-07
2.14802e-07
1.30586e-06
1.54603e-06
7.54602e-09
1.54798e-06
2.07582e-08
1.55096e-06
3.25559e-08
1.55462e-06
4.38386e-08
1.55868e-06
5.48114e-08
1.56296e-06
6.56544e-08
1.56737e-06
7.65167e-08
1.57187e-06
8.75108e-08
1.57652e-06
9.8709e-08
1.5814e-06
1.10144e-07
1.58667e-06
1.21812e-07
1.59247e-06
1.33671e-07
1.599e-06
1.45647e-07
1.60642e-06
1.57633e-07
1.61492e-06
1.69498e-07
1.62463e-06
1.81088e-07
1.63568e-06
1.92206e-07
2.02403e-07
1.64807e-06
1.88486e-06
6.44728e-09
1.88791e-06
1.7709e-08
1.89263e-06
2.78334e-08
1.89867e-06
3.78063e-08
1.90571e-06
4.77688e-08
1.91355e-06
5.78102e-08
1.92208e-06
6.79907e-08
1.93125e-06
7.83424e-08
1.94109e-06
8.88702e-08
1.95168e-06
9.95549e-08
1.96313e-06
1.10356e-07
1.97559e-06
1.21212e-07
1.98919e-06
1.32042e-07
2.00408e-06
1.42747e-07
2.02036e-06
1.53213e-07
2.03813e-06
1.6332e-07
2.05743e-06
1.7291e-07
1.81631e-07
2.0782e-06
2.2981e-06
4.68232e-09
2.30312e-06
1.26853e-08
2.31088e-06
2.00761e-08
2.32088e-06
2.78015e-08
2.33273e-06
3.59248e-08
2.34611e-06
4.44253e-08
2.36085e-06
5.32564e-08
2.37684e-06
6.23538e-08
2.39406e-06
7.16437e-08
2.41257e-06
8.10507e-08
2.43242e-06
9.04994e-08
2.45372e-06
9.99123e-08
2.47656e-06
1.09208e-07
2.501e-06
1.18301e-07
2.52712e-06
1.27102e-07
2.55491e-06
1.35522e-07
2.58437e-06
1.4345e-07
1.50631e-07
2.61537e-06
1.68271e-06
3.03966e-09
1.68742e-06
7.97508e-09
1.69464e-06
1.28601e-08
1.70386e-06
1.85783e-08
1.71469e-06
2.50972e-08
1.72683e-06
3.22815e-08
1.74011e-06
3.99846e-08
1.75441e-06
4.80544e-08
1.7697e-06
5.63491e-08
1.786e-06
6.47494e-08
1.80334e-06
7.31559e-08
1.82177e-06
8.14825e-08
1.84133e-06
8.96511e-08
1.86205e-06
9.75877e-08
1.88393e-06
1.05221e-07
1.90697e-06
1.12482e-07
1.93113e-06
1.19291e-07
1.25455e-07
1.9563e-06
1.46512e-06
1.37759e-09
1.46999e-06
3.10704e-09
1.4774e-06
5.44783e-09
1.48672e-06
9.25505e-09
1.4975e-06
1.43204e-08
1.50942e-06
2.0362e-08
1.52228e-06
2.71191e-08
1.536e-06
3.43374e-08
1.55055e-06
4.18034e-08
1.56594e-06
4.93575e-08
1.58221e-06
5.68821e-08
1.59941e-06
6.42869e-08
1.61756e-06
7.14999e-08
1.63669e-06
7.84597e-08
1.6568e-06
8.51115e-08
1.67787e-06
9.14051e-08
1.69988e-06
9.72824e-08
1.02596e-07
1.72274e-06
1.27556e-06
-1.66471e-10
1.28043e-06
-1.76206e-09
1.28779e-06
-1.91179e-09
1.29683e-06
2.09746e-10
1.30707e-06
4.07687e-09
1.3182e-06
9.23984e-09
1.33001e-06
1.53063e-08
1.34245e-06
2.18988e-08
1.35552e-06
2.87292e-08
1.36927e-06
3.56058e-08
1.38376e-06
4.2401e-08
1.39901e-06
4.90275e-08
1.41509e-06
5.5424e-08
1.43201e-06
6.15448e-08
1.44976e-06
6.73523e-08
1.46836e-06
7.28133e-08
1.48775e-06
7.789e-08
8.24683e-08
1.50788e-06
1.11035e-06
-1.42599e-09
1.11512e-06
-6.52873e-09
1.12225e-06
-9.04381e-09
1.13075e-06
-8.2894e-09
1.14013e-06
-5.3025e-09
1.15007e-06
-6.99768e-10
1.16041e-06
4.9652e-09
1.17115e-06
1.11639e-08
1.18234e-06
1.75377e-08
1.19406e-06
2.38776e-08
1.20641e-06
3.00593e-08
1.21943e-06
3.60084e-08
1.23317e-06
4.16818e-08
1.24766e-06
4.70536e-08
1.26291e-06
5.21051e-08
1.2789e-06
5.68209e-08
1.29561e-06
6.11815e-08
6.50997e-08
1.31298e-06
9.66343e-07
-2.24715e-09
9.70957e-07
-1.11436e-08
9.77728e-07
-1.58139e-08
9.8547e-07
-1.60317e-08
9.93721e-07
-1.35538e-08
1.00217e-06
-9.14637e-09
1.01072e-06
-3.58486e-09
1.01946e-06
2.42443e-09
1.02852e-06
8.47362e-09
1.03804e-06
1.43622e-08
1.04811e-06
1.99888e-08
1.05881e-06
2.53054e-08
1.0702e-06
3.02965e-08
1.08229e-06
3.49609e-08
1.09509e-06
3.93007e-08
1.1086e-06
4.33181e-08
1.12277e-06
4.7011e-08
5.03143e-08
1.13755e-06
8.40718e-07
-2.42987e-09
8.45254e-07
-1.56797e-08
8.51538e-07
-2.20974e-08
8.58286e-07
-2.27798e-08
8.65101e-07
-2.03693e-08
8.71713e-07
-1.57579e-08
8.78162e-07
-1.00343e-08
8.8467e-07
-4.08361e-09
8.91457e-07
1.68698e-09
8.98692e-07
7.12659e-09
9.06499e-07
1.21818e-08
9.14958e-07
1.68468e-08
9.24112e-07
2.11425e-08
9.33976e-07
2.50967e-08
9.44545e-07
2.87323e-08
9.55796e-07
3.20671e-08
9.67692e-07
3.51149e-08
3.78293e-08
9.80177e-07
7.30718e-07
-1.41908e-09
7.35564e-07
-2.05263e-08
7.41216e-07
-2.77489e-08
7.46599e-07
-2.81626e-08
7.51514e-07
-2.52847e-08
7.55842e-07
-2.0086e-08
7.59853e-07
-1.40458e-08
7.63932e-07
-8.16224e-09
7.68372e-07
-2.75301e-09
7.73365e-07
2.13343e-09
7.79029e-07
6.51815e-09
7.85426e-07
1.04496e-08
7.92578e-07
1.39904e-08
8.00477e-07
1.71979e-08
8.09097e-07
2.01118e-08
8.18403e-07
2.27615e-08
8.28346e-07
2.51724e-08
2.73154e-08
8.38859e-07
6.33796e-07
1.79127e-09
6.39653e-07
-2.6383e-08
6.44252e-07
-3.23476e-08
6.47593e-07
-3.15041e-08
6.49874e-07
-2.75655e-08
6.51324e-07
-2.1536e-08
6.52539e-07
-1.5261e-08
6.54052e-07
-9.67507e-09
6.56178e-07
-4.87876e-09
6.59075e-07
-7.64001e-10
6.62817e-07
2.77649e-09
6.67423e-07
5.84356e-09
6.72873e-07
8.54072e-09
6.79121e-07
1.09498e-08
6.86115e-07
1.31175e-08
6.93801e-07
1.50756e-08
7.02119e-07
1.68539e-08
1.84443e-08
7.10991e-07
5.49734e-07
6.60342e-09
5.56263e-07
-3.29118e-08
5.57902e-07
-3.39861e-08
5.57601e-07
-3.1203e-08
5.55975e-07
-2.59405e-08
5.53752e-07
-1.9313e-08
5.51826e-07
-1.33346e-08
5.50744e-07
-8.59328e-09
5.50717e-07
-4.85175e-09
5.51776e-07
-1.82307e-09
5.53894e-07
6.58935e-10
5.57031e-07
2.70624e-09
5.61102e-07
4.47035e-09
5.66011e-07
6.04028e-09
5.71678e-07
7.45024e-09
5.78032e-07
8.7221e-09
5.85009e-07
9.87666e-09
1.09339e-08
5.92519e-07
4.87705e-07
1.65902e-09
4.85436e-07
-3.06426e-08
4.77761e-07
-2.63108e-08
4.69251e-07
-2.26935e-08
4.61108e-07
-1.77972e-08
4.54082e-07
-1.22868e-08
4.48765e-07
-8.01831e-09
4.45256e-07
-5.08411e-09
4.43397e-07
-2.99224e-09
4.4297e-07
-1.39689e-09
4.43791e-07
-1.62089e-10
4.45765e-07
7.32582e-10
4.48712e-07
1.52308e-09
4.52495e-07
2.25757e-09
4.57014e-07
2.93112e-09
4.62192e-07
3.54442e-09
4.6797e-07
4.09865e-09
4.63181e-09
4.74272e-07
4.21927e-07
3.91284e-07
3.64973e-07
3.4228e-07
3.24482e-07
3.12196e-07
3.04177e-07
2.99093e-07
2.96101e-07
2.94704e-07
2.94542e-07
2.95275e-07
2.96798e-07
2.99055e-07
3.01986e-07
3.05531e-07
3.09629e-07
3.14261e-07
4.71943e-08
-4.71943e-08
1.18026e-07
-7.08314e-08
1.98663e-07
-8.06373e-08
2.84553e-07
-8.58896e-08
3.68626e-07
-8.40731e-08
4.49124e-07
-8.04987e-08
5.17259e-07
-6.81343e-08
5.73854e-07
-5.65951e-08
6.21034e-07
-4.71798e-08
6.48013e-07
-2.69794e-08
6.56718e-07
-8.70503e-09
6.56288e-07
4.29884e-10
6.458e-07
1.04878e-08
6.20455e-07
2.5345e-08
5.85813e-07
3.46425e-08
5.4648e-07
3.93328e-08
5.06417e-07
4.00632e-08
4.67294e-07
3.91229e-08
4.2737e-07
3.9924e-08
3.90032e-07
3.73374e-08
3.56276e-07
3.37564e-08
3.24055e-07
3.22214e-08
2.89784e-07
3.42704e-08
2.48438e-07
4.13465e-08
2.02006e-07
4.64321e-08
1.50504e-07
5.15016e-08
9.33284e-08
5.71756e-08
3.00214e-08
6.3307e-08
-4.01532e-08
7.01745e-08
-1.17928e-07
7.77745e-08
-2.03431e-07
8.55035e-08
-2.9662e-07
9.31888e-08
-3.97251e-07
1.00631e-07
-5.04857e-07
1.07606e-07
-6.18762e-07
1.13906e-07
-7.38119e-07
1.19357e-07
-8.61952e-07
1.23833e-07
-9.89211e-07
1.27259e-07
-1.11882e-06
1.2961e-07
-1.24973e-06
1.30904e-07
-1.38093e-06
1.312e-07
-1.51151e-06
1.3058e-07
-1.64065e-06
1.29145e-07
-1.76765e-06
1.27004e-07
-1.89192e-06
1.24267e-07
-2.01296e-06
1.21039e-07
-2.13038e-06
1.17415e-07
-2.24385e-06
1.13476e-07
-2.35314e-06
1.09291e-07
-2.45806e-06
1.04914e-07
-2.55844e-06
1.00387e-07
-2.65418e-06
9.57369e-08
-2.74516e-06
9.09831e-08
-2.8313e-06
8.61339e-08
-2.91249e-06
8.11906e-08
-2.98864e-06
7.61484e-08
-3.05963e-06
7.09977e-08
-3.12536e-06
6.57253e-08
-3.18567e-06
6.03158e-08
-3.24043e-06
5.4752e-08
-3.28944e-06
4.90162e-08
-3.33253e-06
4.3092e-08
-3.3695e-06
3.6965e-08
-3.40012e-06
3.06199e-08
-3.42417e-06
2.40492e-08
-3.44143e-06
1.72615e-08
-3.45174e-06
1.03088e-08
-3.45498e-06
3.24569e-09
-3.45201e-06
-2.97329e-09
-3.4433e-06
-8.70771e-09
-3.42913e-06
-1.41716e-08
-3.40961e-06
-1.95202e-08
-3.38479e-06
-2.48241e-08
-3.35469e-06
-3.00992e-08
-3.31935e-06
-3.53385e-08
-3.27883e-06
-4.05235e-08
-3.2332e-06
-4.56297e-08
-3.18257e-06
-5.0628e-08
-3.12708e-06
-5.54863e-08
-3.06691e-06
-6.01695e-08
-3.00227e-06
-6.46406e-08
-2.93341e-06
-6.88605e-08
-2.86062e-06
-7.27884e-08
-2.78424e-06
-7.63823e-08
-2.70464e-06
-7.95998e-08
-2.62224e-06
-8.23981e-08
-2.53751e-06
-8.47354e-08
-2.45094e-06
-8.65719e-08
-2.36307e-06
-8.78707e-08
-2.27447e-06
-8.85999e-08
-2.18573e-06
-8.8734e-08
-2.09748e-06
-8.82551e-08
-2.01032e-06
-8.71552e-08
-1.92488e-06
-8.54365e-08
-1.84177e-06
-8.31127e-08
-1.76156e-06
-8.02099e-08
-1.6848e-06
-7.67666e-08
-1.61196e-06
-7.28344e-08
-1.54348e-06
-6.84768e-08
-1.47972e-06
-6.37679e-08
-1.42093e-06
-5.87908e-08
-1.36729e-06
-5.36338e-08
-1.3189e-06
-4.83873e-08
-1.27577e-06
-4.3139e-08
-1.2378e-06
-3.79693e-08
-1.20485e-06
-3.2947e-08
-1.17672e-06
-2.81243e-08
-1.15319e-06
-2.35354e-08
-1.13399e-06
-1.9197e-08
-1.11888e-06
-1.51095e-08
-1.10761e-06
-1.12772e-08
-1.09976e-06
-7.84712e-09
-1.09469e-06
-5.07299e-09
-1.09135e-06
-3.33283e-09
-1.08793e-06
-3.41885e-09
-1.08585e-06
-2.08484e-09
-1.09081e-06
4.95692e-09
-1.10057e-06
9.76032e-09
-1.11128e-06
1.07171e-08
-1.12365e-06
1.23627e-08
-1.13099e-06
7.34279e-09
-1.14017e-06
9.17646e-09
-1.15511e-06
1.49455e-08
-1.16878e-06
1.36662e-08
-1.18075e-06
1.1977e-08
-1.19421e-06
1.34513e-08
-1.20321e-06
9.00504e-09
-1.21238e-06
9.17137e-09
-1.22363e-06
1.12497e-08
-1.22858e-06
4.95127e-09
-1.22938e-06
7.92536e-10
-1.2296e-06
2.23061e-10
-1.23183e-06
2.23551e-09
-1.22739e-06
-4.44534e-09
-1.22068e-06
-6.70807e-09
-1.21342e-06
-7.25938e-09
-1.20294e-06
-1.04784e-08
-1.18776e-06
-1.51824e-08
-1.1665e-06
-2.12598e-08
-1.14422e-06
-2.22852e-08
-1.11937e-06
-2.4846e-08
-1.09634e-06
-2.30315e-08
-1.06984e-06
-2.65019e-08
-1.0286e-06
-4.12405e-08
-9.8844e-07
-4.01554e-08
-9.49501e-07
-3.89388e-08
-9.05706e-07
-4.37949e-08
-8.5753e-07
-4.81764e-08
-8.07464e-07
-5.00656e-08
-7.50721e-07
-5.67436e-08
-6.89668e-07
-6.10527e-08
-6.30335e-07
-5.93333e-08
-5.66963e-07
-6.33722e-08
-5.01189e-07
-6.5774e-08
-4.29585e-07
-7.1604e-08
-3.56609e-07
-7.29761e-08
-2.84516e-07
-7.2093e-08
-2.08724e-07
-7.57917e-08
-1.32554e-07
-7.61696e-08
-5.56373e-08
-7.69169e-08
2.28481e-08
-7.84854e-08
1.01425e-07
-7.85771e-08
1.77194e-07
-7.57688e-08
2.55482e-07
-7.82877e-08
3.30629e-07
-7.51469e-08
4.03528e-07
-7.28992e-08
4.76008e-07
-7.24801e-08
5.46456e-07
-7.04485e-08
6.14625e-07
-6.8168e-08
6.80344e-07
-6.57196e-08
7.43302e-07
-6.29578e-08
8.03081e-07
-5.97787e-08
8.59149e-07
-5.6068e-08
9.1083e-07
-5.1681e-08
9.57234e-07
-4.64046e-08
9.97148e-07
-3.99138e-08
1.02873e-06
-3.15859e-08
1.04789e-06
-1.91537e-08
1.04115e-06
6.74121e-09
4.55195e-08
9.95627e-07
8.48973e-08
-1.32092e-07
1.73984e-07
-1.59919e-07
2.48234e-07
-1.54887e-07
3.07718e-07
-1.45373e-07
3.55812e-07
-1.32167e-07
3.91788e-07
-1.16475e-07
4.22064e-07
-9.84094e-08
4.43795e-07
-7.83269e-08
4.54764e-07
-5.81486e-08
4.64407e-07
-3.66224e-08
4.70695e-07
-1.49928e-08
4.65837e-07
5.28754e-09
4.51419e-07
2.4906e-08
4.33238e-07
4.35261e-08
4.08411e-07
5.94698e-08
3.75979e-07
7.17643e-08
3.35636e-07
8.04067e-08
2.88498e-07
8.62612e-08
2.38154e-07
9.02673e-08
1.82317e-07
9.31745e-08
1.18693e-07
9.73807e-08
4.69826e-08
1.03932e-07
-3.21207e-08
1.13374e-07
-1.14486e-07
1.23711e-07
-2.03191e-07
1.35137e-07
-2.99349e-07
1.4766e-07
-4.03254e-07
1.6108e-07
-5.14942e-07
1.74996e-07
-6.33759e-07
1.88991e-07
-7.58654e-07
2.0267e-07
-8.88754e-07
2.15604e-07
-1.02295e-06
2.2738e-07
-1.15995e-06
2.37633e-07
-1.29842e-06
2.46076e-07
-1.43703e-06
2.5252e-07
-1.57455e-06
2.56872e-07
-1.70985e-06
2.59134e-07
-1.84198e-06
2.5939e-07
-1.97016e-06
2.57788e-07
-2.09378e-06
2.54524e-07
-2.2124e-06
2.49821e-07
-2.32573e-06
2.4391e-07
-2.43361e-06
2.37022e-07
-2.53597e-06
2.29367e-07
-2.63284e-06
2.21137e-07
-2.72429e-06
2.12492e-07
-2.81044e-06
2.03564e-07
-2.89142e-06
1.94457e-07
-2.96738e-06
1.85248e-07
-3.03845e-06
1.75987e-07
-3.10477e-06
1.66708e-07
-3.16646e-06
1.57426e-07
-3.22362e-06
1.48142e-07
-3.27634e-06
1.38851e-07
-3.32468e-06
1.29536e-07
-3.36872e-06
1.2018e-07
-3.40848e-06
1.10761e-07
-3.44401e-06
1.01259e-07
-3.47535e-06
9.16532e-08
-3.50252e-06
8.19269e-08
-3.52558e-06
7.20679e-08
-3.54455e-06
6.207e-08
-3.55952e-06
5.19347e-08
-3.57058e-06
4.16738e-08
-3.57784e-06
3.13158e-08
-3.58149e-06
2.09081e-08
-3.5817e-06
1.05147e-08
-3.57863e-06
1.75888e-10
-3.57147e-06
-1.01341e-08
-3.55961e-06
-2.05616e-08
-3.54272e-06
-3.10675e-08
-3.52062e-06
-4.16145e-08
-3.49327e-06
-5.21788e-08
-3.46063e-06
-6.27323e-08
-3.42274e-06
-7.32373e-08
-3.37961e-06
-8.36485e-08
-3.33133e-06
-9.39128e-08
-3.27798e-06
-1.03971e-07
-3.21971e-06
-1.13759e-07
-3.15667e-06
-1.23207e-07
-3.08908e-06
-1.3224e-07
-3.01715e-06
-1.40782e-07
-2.94119e-06
-1.48752e-07
-2.86151e-06
-1.56067e-07
-2.77846e-06
-1.62642e-07
-2.69247e-06
-1.68393e-07
-2.60397e-06
-1.73238e-07
-2.51344e-06
-1.77096e-07
-2.42142e-06
-1.79895e-07
-2.32845e-06
-1.81568e-07
-2.23512e-06
-1.82061e-07
-2.14204e-06
-1.81334e-07
-2.04984e-06
-1.79363e-07
-1.95913e-06
-1.76144e-07
-1.87055e-06
-1.71693e-07
-1.78471e-06
-1.66049e-07
-1.7022e-06
-1.59274e-07
-1.62358e-06
-1.51457e-07
-1.54935e-06
-1.42706e-07
-1.47996e-06
-1.33153e-07
-1.41581e-06
-1.2295e-07
-1.35718e-06
-1.12259e-07
-1.30432e-06
-1.01252e-07
-1.25735e-06
-9.01055e-08
-1.21633e-06
-7.89877e-08
-1.18122e-06
-6.80576e-08
-1.15189e-06
-5.74567e-08
-1.12812e-06
-4.73043e-08
-1.10962e-06
-3.76975e-08
-1.09601e-06
-2.87138e-08
-1.08686e-06
-2.04314e-08
-1.08174e-06
-1.29681e-08
-1.08037e-06
-6.4446e-09
-1.08264e-06
-1.06116e-09
-1.0892e-06
3.1461e-09
-1.09939e-06
8.10178e-09
-1.10915e-06
1.4713e-08
-1.11942e-06
2.00349e-08
-1.13148e-06
2.2772e-08
-1.14352e-06
2.44083e-08
-1.1595e-06
2.33245e-08
-1.17453e-06
2.42026e-08
-1.18673e-06
2.71421e-08
-1.19992e-06
2.68631e-08
-1.21329e-06
2.53409e-08
-1.2243e-06
2.44635e-08
-1.23631e-06
2.1012e-08
-1.2458e-06
1.86662e-08
-1.25143e-06
1.68761e-08
-1.25808e-06
1.16075e-08
-1.26347e-06
6.17455e-09
-1.26598e-06
2.73648e-09
-1.26313e-06
-6.10132e-10
-1.26095e-06
-6.62673e-09
-1.2557e-06
-1.1957e-08
-1.24628e-06
-1.66846e-08
-1.23394e-06
-2.28131e-08
-1.21885e-06
-3.02761e-08
-1.20201e-06
-3.81001e-08
-1.18069e-06
-4.3603e-08
-1.1566e-06
-4.89392e-08
-1.12676e-06
-5.28709e-08
-1.09247e-06
-6.07883e-08
-1.06077e-06
-7.29374e-08
-1.02274e-06
-7.81891e-08
-9.79253e-07
-8.24265e-08
-9.33281e-07
-8.97674e-08
-8.84164e-07
-9.72935e-08
-8.30322e-07
-1.03907e-07
-7.74124e-07
-1.12942e-07
-7.16188e-07
-1.18989e-07
-6.52812e-07
-1.2271e-07
-5.87185e-07
-1.28999e-07
-5.17745e-07
-1.35214e-07
-4.46947e-07
-1.42403e-07
-3.74706e-07
-1.45217e-07
-2.98884e-07
-1.47915e-07
-2.23596e-07
-1.51079e-07
-1.46568e-07
-1.53197e-07
-6.72604e-08
-1.56225e-07
1.23013e-08
-1.58047e-07
9.24289e-08
-1.58705e-07
1.72504e-07
-1.55844e-07
2.48774e-07
-1.54558e-07
3.26739e-07
-1.53112e-07
4.02606e-07
-1.48766e-07
4.75777e-07
-1.45651e-07
5.4739e-07
-1.42062e-07
6.17081e-07
-1.37859e-07
6.84466e-07
-1.33104e-07
7.49211e-07
-1.27703e-07
8.10923e-07
-1.2149e-07
8.69111e-07
-1.14255e-07
9.23147e-07
-1.05718e-07
9.72226e-07
-9.54831e-08
1.0153e-06
-8.29886e-08
1.05087e-06
-6.71565e-08
1.0776e-06
-4.58859e-08
1.09445e-06
-1.01052e-08
4.40752e-08
1.09589e-06
7.30471e-08
-2.05139e-07
1.33812e-07
-2.20684e-07
1.81214e-07
-2.02289e-07
2.15987e-07
-1.80146e-07
2.40586e-07
-1.56766e-07
2.56557e-07
-1.32447e-07
2.65476e-07
-1.07328e-07
2.68616e-07
-8.14668e-08
2.65765e-07
-5.52973e-08
2.58138e-07
-2.8996e-08
2.4599e-07
-2.84411e-09
2.28526e-07
2.27512e-08
2.0599e-07
4.74424e-08
1.78821e-07
7.06952e-08
1.46448e-07
9.18425e-08
1.07872e-07
1.1034e-07
6.21506e-08
1.26129e-07
8.72286e-09
1.39689e-07
-5.28795e-08
1.5187e-07
-1.23425e-07
1.6372e-07
-2.02547e-07
1.76503e-07
-2.89517e-07
1.90901e-07
-3.83121e-07
2.06978e-07
-4.83441e-07
2.24032e-07
-5.90201e-07
2.41896e-07
-7.0279e-07
2.60249e-07
-8.20303e-07
2.78593e-07
-9.41664e-07
2.96357e-07
-1.06565e-06
3.12977e-07
-1.19093e-06
3.27954e-07
-1.3162e-06
3.40872e-07
-1.44023e-06
3.51409e-07
-1.56195e-06
3.59355e-07
-1.68049e-06
3.64617e-07
-1.79519e-06
3.6722e-07
-1.90561e-06
3.67283e-07
-2.01148e-06
3.65006e-07
-2.11272e-06
3.60637e-07
-2.2094e-06
3.54459e-07
-2.30163e-06
3.46763e-07
-2.38965e-06
3.37833e-07
-2.47367e-06
3.27933e-07
-2.55395e-06
3.17299e-07
-2.63071e-06
3.06131e-07
-2.70417e-06
2.94597e-07
-2.77451e-06
2.82826e-07
-2.84186e-06
2.70917e-07
-2.90634e-06
2.58939e-07
-2.96803e-06
2.46934e-07
-3.02696e-06
2.34924e-07
-3.08317e-06
2.22914e-07
-3.13664e-06
2.10895e-07
-3.18735e-06
1.9885e-07
-3.23525e-06
1.86753e-07
-3.28029e-06
1.74575e-07
-3.32239e-06
1.62284e-07
-3.36148e-06
1.49851e-07
-3.39747e-06
1.37246e-07
-3.43026e-06
1.24442e-07
-3.45975e-06
1.1142e-07
-3.48584e-06
9.81626e-08
-3.50843e-06
8.46606e-08
-3.52741e-06
7.09111e-08
-3.54265e-06
5.69176e-08
-3.55403e-06
4.26906e-08
-3.56137e-06
2.82457e-08
-3.56445e-06
1.3596e-08
-3.56301e-06
-1.26325e-09
-3.55677e-06
-1.63684e-08
-3.54561e-06
-3.17216e-08
-3.52941e-06
-4.72702e-08
-3.50807e-06
-6.29591e-08
-3.48151e-06
-7.87317e-08
-3.44972e-06
-9.4528e-08
-3.41267e-06
-1.10282e-07
-3.3704e-06
-1.25918e-07
-3.32296e-06
-1.41356e-07
-3.27043e-06
-1.56506e-07
-3.21292e-06
-1.7127e-07
-3.15058e-06
-1.85544e-07
-3.0836e-06
-1.99219e-07
-3.0122e-06
-2.12179e-07
-2.93665e-06
-2.24304e-07
-2.85725e-06
-2.35471e-07
-2.77433e-06
-2.45554e-07
-2.6883e-06
-2.54428e-07
-2.59957e-06
-2.61969e-07
-2.50861e-06
-2.68058e-07
-2.41592e-06
-2.72583e-07
-2.32204e-06
-2.75445e-07
-2.22754e-06
-2.76558e-07
-2.13302e-06
-2.75855e-07
-2.03909e-06
-2.73294e-07
-1.94638e-06
-2.68857e-07
-1.85551e-06
-2.62557e-07
-1.76713e-06
-2.54437e-07
-1.68182e-06
-2.44576e-07
-1.60019e-06
-2.33089e-07
-1.52277e-06
-2.20123e-07
-1.45007e-06
-2.05858e-07
-1.38252e-06
-1.90504e-07
-1.32048e-06
-1.74292e-07
-1.26426e-06
-1.57472e-07
-1.21407e-06
-1.40299e-07
-1.17003e-06
-1.23031e-07
-1.13217e-06
-1.05916e-07
-1.10044e-06
-8.91866e-08
-1.07469e-06
-7.30541e-08
-1.05468e-06
-5.77047e-08
-1.04009e-06
-4.32999e-08
-1.03054e-06
-2.99843e-08
-1.02562e-06
-1.78895e-08
-1.02495e-06
-7.11452e-09
-1.02829e-06
2.28269e-09
-1.03561e-06
1.04651e-08
-1.04576e-06
1.82491e-08
-1.05696e-06
2.59149e-08
-1.06913e-06
3.21977e-08
-1.08281e-06
3.64587e-08
-1.09752e-06
3.91168e-08
-1.11444e-06
4.0246e-08
-1.13151e-06
4.12757e-08
-1.14677e-06
4.23972e-08
-1.16181e-06
4.18983e-08
-1.17661e-06
4.01476e-08
-1.18979e-06
3.7646e-08
-1.20274e-06
3.39609e-08
-1.21404e-06
2.99623e-08
-1.22257e-06
2.54052e-08
-1.23029e-06
1.93324e-08
-1.23678e-06
1.26564e-08
-1.24038e-06
6.34473e-09
-1.24062e-06
-3.73667e-10
-1.23902e-06
-8.22797e-09
-1.23479e-06
-1.61869e-08
-1.22706e-06
-2.4417e-08
-1.21631e-06
-3.35545e-08
-1.20297e-06
-4.36236e-08
-1.18725e-06
-5.38141e-08
-1.16775e-06
-6.31042e-08
-1.14446e-06
-7.2232e-08
-1.11606e-06
-8.12752e-08
-1.08426e-06
-9.25793e-08
-1.05214e-06
-1.05058e-07
-1.01546e-06
-1.14871e-07
-9.73662e-07
-1.24226e-07
-9.28619e-07
-1.3481e-07
-8.80301e-07
-1.45612e-07
-8.27976e-07
-1.56232e-07
-7.73418e-07
-1.675e-07
-7.15842e-07
-1.76565e-07
-6.53665e-07
-1.84886e-07
-5.88649e-07
-1.94015e-07
-5.20721e-07
-2.03142e-07
-4.51502e-07
-2.11622e-07
-3.79857e-07
-2.16862e-07
-3.05518e-07
-2.22254e-07
-2.30502e-07
-2.26096e-07
-1.53969e-07
-2.2973e-07
-7.60109e-08
-2.34183e-07
2.31092e-09
-2.36369e-07
8.08518e-08
-2.37246e-07
1.59549e-07
-2.34541e-07
2.35986e-07
-2.30995e-07
3.12415e-07
-2.2954e-07
3.87629e-07
-2.2398e-07
4.60632e-07
-2.18654e-07
5.31752e-07
-2.13182e-07
6.0085e-07
-2.06957e-07
6.67644e-07
-1.99899e-07
7.31842e-07
-1.91902e-07
7.93099e-07
-1.82747e-07
8.50973e-07
-1.7213e-07
9.04903e-07
-1.59647e-07
9.54178e-07
-1.44759e-07
9.97908e-07
-1.26718e-07
1.03494e-06
-1.04193e-07
1.06405e-06
-7.49927e-08
1.08602e-06
-3.20773e-08
2.85087e-08
1.10159e-06
4.49014e-08
-2.5004e-07
7.04404e-08
-2.46223e-07
8.85435e-08
-2.20392e-07
1.00321e-07
-1.91923e-07
1.06182e-07
-1.62627e-07
1.06541e-07
-1.32806e-07
1.01785e-07
-1.02572e-07
9.23406e-08
-7.20225e-08
7.83373e-08
-4.1294e-08
5.99154e-08
-1.05741e-08
3.71566e-08
1.99147e-08
1.00048e-08
4.99029e-08
-2.16054e-08
7.90525e-08
-5.7876e-08
1.06966e-07
-9.92721e-08
1.33239e-07
-1.4656e-07
1.57628e-07
-2.00607e-07
1.80176e-07
-2.6217e-07
2.01251e-07
-3.3176e-07
2.21461e-07
-4.09526e-07
2.41486e-07
-4.94958e-07
2.61934e-07
-5.87147e-07
2.83091e-07
-6.84999e-07
3.0483e-07
-7.87713e-07
3.26746e-07
-8.94217e-07
3.48401e-07
-1.00327e-06
3.69299e-07
-1.11357e-06
3.88894e-07
-1.22387e-06
4.06659e-07
-1.33303e-06
4.22139e-07
-1.44007e-06
4.3499e-07
-1.54419e-06
4.44991e-07
-1.64482e-06
4.52045e-07
-1.74164e-06
4.56174e-07
-1.83452e-06
4.57496e-07
-1.92351e-06
4.5621e-07
-2.0088e-06
4.52571e-07
-2.09066e-06
4.46865e-07
-2.16941e-06
4.39388e-07
-2.24539e-06
4.30435e-07
-2.3189e-06
4.20279e-07
-2.39024e-06
4.09171e-07
-2.45963e-06
3.97326e-07
-2.52726e-06
3.8493e-07
-2.59326e-06
3.7213e-07
-2.65771e-06
3.59042e-07
-2.72063e-06
3.45753e-07
-2.78204e-06
3.32322e-07
-2.84188e-06
3.18783e-07
-2.9001e-06
3.05153e-07
-2.95661e-06
2.91432e-07
-3.0113e-06
2.77606e-07
-3.06406e-06
2.63653e-07
-3.11475e-06
2.49542e-07
-3.16324e-06
2.35241e-07
-3.20938e-06
2.20711e-07
-3.25301e-06
2.05918e-07
-3.29398e-06
1.90823e-07
-3.33213e-06
1.75396e-07
-3.3673e-06
1.59605e-07
-3.3993e-06
1.43426e-07
-3.42798e-06
1.2684e-07
-3.45315e-06
1.09832e-07
-3.47464e-06
9.23959e-08
-3.49225e-06
7.45285e-08
-3.50579e-06
5.62341e-08
-3.51507e-06
3.75212e-08
-3.51987e-06
1.84011e-08
-3.52002e-06
-1.11766e-09
-3.51536e-06
-2.10297e-08
-3.50577e-06
-4.13023e-08
-3.49117e-06
-6.18764e-08
-3.47145e-06
-8.2681e-08
-3.44654e-06
-1.03639e-07
-3.4164e-06
-1.24667e-07
-3.38101e-06
-1.45672e-07
-3.34038e-06
-1.66553e-07
-3.29453e-06
-1.872e-07
-3.24355e-06
-2.07493e-07
-3.18751e-06
-2.27303e-07
-3.12657e-06
-2.46492e-07
-3.06087e-06
-2.64914e-07
-2.99063e-06
-2.82416e-07
-2.9161e-06
-2.9884e-07
-2.83755e-06
-3.14021e-07
-2.75531e-06
-3.27793e-07
-2.66975e-06
-3.39988e-07
-2.58128e-06
-3.50442e-07
-2.49034e-06
-3.58994e-07
-2.39743e-06
-3.65494e-07
-2.30307e-06
-3.69805e-07
-2.20782e-06
-3.71807e-07
-2.11227e-06
-3.71405e-07
-2.01703e-06
-3.68532e-07
-1.92274e-06
-3.63151e-07
-1.83003e-06
-3.55267e-07
-1.73954e-06
-3.44922e-07
-1.65192e-06
-3.32205e-07
-1.56776e-06
-3.17249e-07
-1.48764e-06
-3.00235e-07
-1.41212e-06
-2.81385e-07
-1.34166e-06
-2.60962e-07
-1.27669e-06
-2.39265e-07
-1.21754e-06
-2.16614e-07
-1.1645e-06
-1.93347e-07
-1.11772e-06
-1.69809e-07
-1.0773e-06
-1.46339e-07
-1.04322e-06
-1.23261e-07
-1.0154e-06
-1.00879e-07
-9.93631e-07
-7.94697e-08
-9.77653e-07
-5.92782e-08
-9.6712e-07
-4.05176e-08
-9.61647e-07
-2.33623e-08
-9.60829e-07
-7.93232e-09
-9.64265e-07
5.71893e-09
-9.71518e-07
1.77173e-08
-9.81733e-07
2.8464e-08
-9.93877e-07
3.8059e-08
-1.00759e-06
4.59105e-08
-1.02286e-06
5.173e-08
-1.03945e-06
5.57095e-08
-1.05724e-06
5.80304e-08