/*--------------------------------*- C++ -*----------------------------------*\
  =========                 |
  \\      /  F ield         | OpenFOAM: The Open Source CFD Toolbox
   \\    /   O peration     | Website:  https://openfoam.org
    \\  /    A nd           | Version:  9
     \\/     M anipulation  |
\*---------------------------------------------------------------------------*/
FoamFile
{
    format      ascii;
    class       volVectorField;
    location    "0.15";
    object      U;
}
// * * * * * * * * * * * * * * * * * * * * * * * * * * * * * * * * * * * * * //

dimensions      [0 1 -1 0 0 0 0];

internalField   nonuniform List<vector> 
12225
(
(0.931381 -0.314628 0)
(0.895966 -0.0916611 0)
(0.799011 -0.00269403 0)
(0.698509 0.0120033 0)
(0.628036 0.0100033 0)
(0.579101 0.00716182 0)
(0.539882 0.00578947 0)
(0.505114 0.00540125 0)
(0.472409 0.00543842 0)
(0.440286 0.0056405 0)
(0.407904 0.00591751 0)
(0.37487 0.0062222 0)
(0.341091 0.00649424 0)
(0.306701 0.00663789 0)
(0.27259 0.00646481 0)
(0.23951 0.00566559 0)
(0.214014 0.00156589 0)
(0.191809 0.0171304 0)
(1.0265 0.0771737 0)
(1.0044 0.0657649 0)
(0.967109 0.0357681 0)
(0.919992 0.0258677 0)
(0.874863 0.0213602 0)
(0.8343 0.017834 0)
(0.797035 0.0157203 0)
(0.762073 0.0149429 0)
(0.72825 0.0150361 0)
(0.694281 0.015666 0)
(0.659167 0.0166602 0)
(0.622213 0.0179047 0)
(0.582948 0.0192782 0)
(0.541022 0.0205954 0)
(0.496487 0.0216098 0)
(0.448655 0.0216325 0)
(0.397363 0.0177877 0)
(0.330382 0.0305466 0)
(1.00039 0.0234007 0)
(1.00003 0.0359495 0)
(0.9957 0.0340382 0)
(0.976008 0.0322165 0)
(0.949111 0.0293515 0)
(0.919886 0.0262707 0)
(0.889769 0.024384 0)
(0.859572 0.0238845 0)
(0.829241 0.0244457 0)
(0.798121 0.0257978 0)
(0.765496 0.0277869 0)
(0.730738 0.0302984 0)
(0.693296 0.0332084 0)
(0.652598 0.036338 0)
(0.608154 0.0395034 0)
(0.558765 0.0422965 0)
(0.502375 0.0443886 0)
(0.433021 0.0640268 0)
(0.9982 0.00627292 0)
(1.00109 0.0280803 0)
(1.00528 0.0351754 0)
(0.996943 0.0365607 0)
(0.980768 0.0354874 0)
(0.960256 0.0336351 0)
(0.936823 0.032539 0)
(0.911695 0.0326713 0)
(0.885359 0.0339324 0)
(0.857627 0.0361727 0)
(0.828083 0.0392946 0)
(0.796254 0.0432156 0)
(0.761631 0.047846 0)
(0.723599 0.0530671 0)
(0.681471 0.0588165 0)
(0.634048 0.0649994 0)
(0.579442 0.0724775 0)
(0.515458 0.0956905 0)
(0.99909 0.00570897 0)
(1.0024 0.0272304 0)
(1.00838 0.0360057 0)
(1.00555 0.0391411 0)
(0.996034 0.0398961 0)
(0.981828 0.0395908 0)
(0.963897 0.0396516 0)
(0.943374 0.0407285 0)
(0.920911 0.0429203 0)
(0.896582 0.0462095 0)
(0.870196 0.050579 0)
(0.841435 0.0560073 0)
(0.809881 0.0624695 0)
(0.774975 0.0699419 0)
(0.736044 0.0784971 0)
(0.692091 0.0882945 0)
(0.641893 0.100644 0)
(0.584774 0.125902 0)
(0.999495 0.00691895 0)
(1.00265 0.0262249 0)
(1.00877 0.0356858 0)
(1.00887 0.0404158 0)
(1.00355 0.0429152 0)
(0.993829 0.0442293 0)
(0.980248 0.0456448 0)
(0.963693 0.047885 0)
(0.944782 0.0511911 0)
(0.923707 0.0556628 0)
(0.900422 0.0613692 0)
(0.874735 0.068362 0)
(0.846337 0.0766946 0)
(0.814783 0.0864426 0)
(0.779531 0.0977884 0)
(0.739871 0.111049 0)
(0.695223 0.127581 0)
(0.645508 0.154253 0)
(0.999563 0.00712019 0)
(1.00242 0.0245927 0)
(1.0081 0.034735 0)
(1.00971 0.0408699 0)
(1.00703 0.0449243 0)
(1.00046 0.0478054 0)
(0.990256 0.0506451 0)
(0.977027 0.0541694 0)
(0.961281 0.0587104 0)
(0.94324 0.0644602 0)
(0.922937 0.0715648 0)
(0.900279 0.080148 0)
(0.875065 0.0903369 0)
(0.846987 0.10229 0)
(0.815682 0.116258 0)
(0.780737 0.13262 0)
(0.742049 0.152563 0)
(0.699801 0.180335 0)
(0.999609 0.00690125 0)
(1.00207 0.0229416 0)
(1.00708 0.0335694 0)
(1.00936 0.0408206 0)
(1.00829 0.0462139 0)
(1.00394 0.0505482 0)
(0.996332 0.0547947 0)
(0.985853 0.0596436 0)
(0.972882 0.0654783 0)
(0.957626 0.0725556 0)
(0.940158 0.0810831 0)
(0.920457 0.0912444 0)
(0.898419 0.103226 0)
(0.873874 0.117241 0)
(0.846642 0.133567 0)
(0.816567 0.152574 0)
(0.783854 0.175183 0)
(0.748781 0.203826 0)
(0.999689 0.00667845 0)
(1.00173 0.0214974 0)
(1.00597 0.0323603 0)
(1.00845 0.040462 0)
(1.00836 0.046989 0)
(1.00555 0.0526327 0)
(0.999938 0.0582137 0)
(0.991721 0.0643674 0)
(0.981167 0.0714988 0)
(0.968447 0.0799054 0)
(0.953655 0.0898374 0)
(0.936818 0.101521 0)
(0.91792 0.115182 0)
(0.896912 0.131059 0)
(0.873771 0.14942 0)
(0.848538 0.170579 0)
(0.821588 0.195174 0)
(0.793208 0.224439 0)
(0.999775 0.00650515 0)
(1.00144 0.0202705 0)
(1.00493 0.0311885 0)
(1.00735 0.0399293 0)
(1.00783 0.0474032 0)
(1.00611 0.0542013 0)
(1.00204 0.0610116 0)
(0.99569 0.0684073 0)
(0.987243 0.0767936 0)
(0.976832 0.086488 0)
(0.964556 0.097765 0)
(0.950482 0.110875 0)
(0.934659 0.12606 0)
(0.91714 0.143557 0)
(0.89802 0.163602 0)
(0.87747 0.186425 0)
(0.85594 0.212409 0)
(0.833682 0.242023 0)
(0.999846 0.00630546 0)
(1.0012 0.0191871 0)
(1.00404 0.0300475 0)
(1.00628 0.0392548 0)
(1.00709 0.0475006 0)
(1.00617 0.0552881 0)
(1.00332 0.0631929 0)
(0.99855 0.0717246 0)
(0.991965 0.0812741 0)
(0.98367 0.0921621 0)
(0.973767 0.104671 0)
(0.962351 0.119057 0)
(0.949523 0.13556 0)
(0.935403 0.154397 0)
(0.920167 0.175752 0)
(0.904056 0.199771 0)
(0.887526 0.226632 0)
(0.870755 0.256338 0)
(0.999888 0.00622543 0)
(1.00099 0.0184137 0)
(1.00333 0.0291595 0)
(1.00537 0.0386767 0)
(1.00635 0.0475004 0)
(1.00598 0.0560625 0)
(1.00405 0.0648529 0)
(1.00052 0.0743243 0)
(0.995459 0.0848445 0)
(0.988959 0.0967247 0)
(0.981119 0.110241 0)
(0.972054 0.12564 0)
(0.961897 0.143143 0)
(0.950811 0.162934 0)
(0.939009 0.185145 0)
(0.926752 0.209848 0)
(0.914462 0.23709 0)
(0.902286 0.266631 0)
(0.999941 0.00601977 0)
(1.00088 0.0176527 0)
(1.00282 0.0282374 0)
(1.00467 0.0379585 0)
(1.00579 0.0472305 0)
(1.00587 0.0564239 0)
(1.00472 0.0659568 0)
(1.00229 0.0762288 0)
(0.998608 0.0875796 0)
(0.993755 0.100304 0)
(0.987831 0.114662 0)
(0.980963 0.130885 0)
(0.973302 0.14917 0)
(0.965036 0.169664 0)
(0.956391 0.192454 0)
(0.947631 0.217552 0)
(0.939142 0.244902 0)
(0.931039 0.274065 0)
(0.999981 0.00584851 0)
(1.00078 0.0169508 0)
(1.00238 0.0273196 0)
(1.00408 0.0371694 0)
(1.00534 0.0468187 0)
(1.00587 0.0565816 0)
(1.00552 0.0668076 0)
(1.00422 0.0778394 0)
(1.00199 0.0899803 0)
(0.998896 0.103497 0)
(0.995041 0.118625 0)
(0.990558 0.135564 0)
(0.985612 0.154476 0)
(0.980396 0.175466 0)
(0.975137 0.198568 0)
(0.970078 0.22374 0)
(0.965563 0.250843 0)
(0.961579 0.279277 0)
(1.00001 0.0056356 0)
(1.00073 0.0162205 0)
(1.00214 0.026301 0)
(1.0038 0.0361687 0)
(1.00528 0.0460696 0)
(1.00636 0.0562687 0)
(1.00689 0.0670522 0)
(1.00681 0.0787048 0)
(1.00615 0.0914851 0)
(1.00495 0.105621 0)
(1.00333 0.121311 0)
(1.00141 0.138714 0)
(0.999359 0.157948 0)
(0.997354 0.179071 0)
(0.995601 0.202071 0)
(0.9943 0.226864 0)
(0.993745 0.253256 0)
(0.993776 0.280584 0)
(1.00004 0.00536631 0)
(1.00076 0.0154052 0)
(1.00216 0.025085 0)
(1.00397 0.0348108 0)
(1.00586 0.0447779 0)
(1.00763 0.0552052 0)
(1.0092 0.0663222 0)
(1.0105 0.0783557 0)
(1.01155 0.0915129 0)
(1.01241 0.105975 0)
(1.01316 0.121894 0)
(1.01394 0.139382 0)
(1.01488 0.158511 0)
(1.01614 0.179295 0)
(1.01789 0.201685 0)
(1.02026 0.225572 0)
(1.02351 0.250739 0)
(1.02732 0.276525 0)
(1.00007 0.00499274 0)
(1.0009 0.0143436 0)
(1.0025 0.0234251 0)
(1.00471 0.0327605 0)
(1.00725 0.0425113 0)
(1.00998 0.0528515 0)
(1.0128 0.0639575 0)
(1.01568 0.0759984 0)
(1.01863 0.0891265 0)
(1.0217 0.103471 0)
(1.02496 0.119132 0)
(1.02851 0.136177 0)
(1.03247 0.154634 0)
(1.03695 0.174483 0)
(1.04207 0.195653 0)
(1.04791 0.218026 0)
(1.05469 0.24139 0)
(1.06195 0.265144 0)
(1.00011 0.00442754 0)
(1.00116 0.0127523 0)
(1.00321 0.0208817 0)
(1.00611 0.029431 0)
(1.00962 0.0385383 0)
(1.01359 0.0483327 0)
(1.01795 0.0589371 0)
(1.02265 0.0704632 0)
(1.02768 0.0830059 0)
(1.03309 0.0966405 0)
(1.03892 0.111419 0)
(1.04524 0.127367 0)
(1.05214 0.144477 0)
(1.05968 0.162707 0)
(1.06793 0.181979 0)
(1.07693 0.202179 0)
(1.08684 0.223121 0)
(1.09714 0.244302 0)
(1.00015 0.00352771 0)
(1.00155 0.0101822 0)
(1.00432 0.0167496 0)
(1.00823 0.0238899 0)
(1.01303 0.0317186 0)
(1.01855 0.0403164 0)
(1.02468 0.0497498 0)
(1.03138 0.0600701 0)
(1.0386 0.0713134 0)
(1.04637 0.0835022 0)
(1.05471 0.0966445 0)
(1.06366 0.110731 0)
(1.07325 0.125732 0)
(1.08353 0.141596 0)
(1.09452 0.158247 0)
(1.10623 0.175588 0)
(1.11879 0.193469 0)
(1.13162 0.211497 0)
(1.00019 0.00247106 0)
(1.00198 0.00692499 0)
(1.00551 0.0115023 0)
(1.01047 0.0168342 0)
(1.0165 0.0230092 0)
(1.02336 0.0300566 0)
(1.03093 0.0379838 0)
(1.03914 0.0467797 0)
(1.04794 0.0564227 0)
(1.05733 0.0668884 0)
(1.06732 0.0781495 0)
(1.07795 0.0901736 0)
(1.08924 0.102919 0)
(1.1012 0.116334 0)
(1.11386 0.13035 0)
(1.1272 0.144891 0)
(1.14131 0.159841 0)
(1.15573 0.174908 0)
(1.00021 0.0014196 0)
(1.00231 0.0037479 0)
(1.00652 0.00644395 0)
(1.01234 0.0101379 0)
(1.01929 0.0148667 0)
(1.02708 0.0205947 0)
(1.03556 0.0272659 0)
(1.04465 0.0348045 0)
(1.0543 0.0431338 0)
(1.06452 0.0521891 0)
(1.07533 0.061916 0)
(1.08675 0.0722663 0)
(1.09881 0.0831922 0)
(1.11154 0.0946427 0)
(1.12494 0.106561 0)
(1.13899 0.118881 0)
(1.15377 0.131515 0)
(1.16889 0.144234 0)
(1.00021 0.000393696 0)
(1.00254 0.000526821 0)
(1.00739 0.00134987 0)
(1.01398 0.00352042 0)
(1.02165 0.00696446 0)
(1.03008 0.0115622 0)
(1.0391 0.0171817 0)
(1.04862 0.0236689 0)
(1.05862 0.030888 0)
(1.06914 0.038737 0)
(1.0802 0.0471403 0)
(1.09186 0.0560384 0)
(1.10414 0.0653817 0)
(1.11708 0.0751238 0)
(1.13068 0.0852172 0)
(1.14492 0.0956104 0)
(1.15988 0.106236 0)
(1.17522 0.116909 0)
(1.00014 -0.000539829 0)
(1.00259 -0.0026737 0)
(1.00806 -0.00364128 0)
(1.01535 -0.0027923 0)
(1.02352 -0.000404659 0)
(1.03227 0.00331404 0)
(1.04143 0.00813856 0)
(1.05092 0.0138157 0)
(1.06079 0.020147 0)
(1.0711 0.0269999 0)
(1.08193 0.0342837 0)
(1.09334 0.0419347 0)
(1.10539 0.0499064 0)
(1.11811 0.0581611 0)
(1.1315 0.0666627 0)
(1.14557 0.0753736 0)
(1.16035 0.0842449 0)
(1.17558 0.0931292 0)
(1 -0.0013085 0)
(1.00237 -0.00587692 0)
(1.00852 -0.00846813 0)
(1.01638 -0.00864721 0)
(1.02478 -0.00703272 0)
(1.03345 -0.00389735 0)
(1.04226 0.000416549 0)
(1.05119 0.00553006 0)
(1.06037 0.0111832 0)
(1.06995 0.0172237 0)
(1.08007 0.0235579 0)
(1.0908 0.0301268 0)
(1.10222 0.0368943 0)
(1.11437 0.0438358 0)
(1.12725 0.0509296 0)
(1.14086 0.0581529 0)
(1.15522 0.0654748 0)
(1.17012 0.0727777 0)
(0.99971 -0.00150686 0)
(1.00177 -0.00895653 0)
(1.00876 -0.0130445 0)
(1.01701 -0.0139084 0)
(1.02515 -0.0127239 0)
(1.03312 -0.0098331 0)
(1.04087 -0.00574307 0)
(1.04852 -0.000976594 0)
(1.05636 0.00416119 0)
(1.06465 0.00951831 0)
(1.07356 0.015014 0)
(1.08321 0.020607 0)
(1.09367 0.0262808 0)
(1.10498 0.0320297 0)
(1.11712 0.0378483 0)
(1.13009 0.043729 0)
(1.14388 0.049659 0)
(1.15832 0.0555463 0)
(0.998787 -0.000102281 0)
(1.00036 -0.0112023 0)
(1.00865 -0.0169566 0)
(1.01688 -0.0182977 0)
(1.02384 -0.0171791 0)
(1.03006 -0.0141739 0)
(1.03569 -0.0100634 0)
(1.04111 -0.0055078 0)
(1.04683 -0.000813647 0)
(1.05322 0.00390249 0)
(1.06046 0.00859281 0)
(1.06868 0.0132465 0)
(1.07792 0.0178764 0)
(1.0882 0.0225002 0)
(1.09949 0.0271295 0)
(1.11173 0.0317707 0)
(1.12489 0.0364275 0)
(1.13885 0.0410328 0)
(0.996546 0.00152145 0)
(0.997686 -0.0127482 0)
(1.00755 -0.0196473 0)
(1.01472 -0.02132 0)
(1.0188 -0.0199383 0)
(1.02146 -0.0165021 0)
(1.02341 -0.0122381 0)
(1.02539 -0.00789711 0)
(1.02813 -0.00370533 0)
(1.03201 0.000302813 0)
(1.03719 0.00413687 0)
(1.04373 0.00782061 0)
(1.05162 0.011403 0)
(1.06081 0.0149278 0)
(1.07121 0.0184197 0)
(1.08274 0.0218947 0)
(1.09531 0.0253692 0)
(1.1088 0.0288032 0)
(0.995608 -0.00984938 0)
(0.996254 -0.0207855 0)
(1.00458 -0.0227244 0)
(1.00682 -0.0228502 0)
(1.00445 -0.0206353 0)
(1.00058 -0.0165573 0)
(0.996629 -0.0121674 0)
(0.993736 -0.00819129 0)
(0.992641 -0.00467297 0)
(0.99356 -0.00151287 0)
(0.996417 0.00136747 0)
(1.00117 0.00402115 0)
(1.00768 0.00653907 0)
(1.01581 0.0089833 0)
(1.02536 0.0113849 0)
(1.03621 0.0137612 0)
(1.04823 0.0161314 0)
(1.0613 0.0184883 0)
(1.0157 -0.0654815 0)
(1.0102 -0.0611961 0)
(0.998657 -0.0348513 0)
(0.980982 -0.024182 0)
(0.962899 -0.0192606 0)
(0.947132 -0.014623 0)
(0.934385 -0.0104334 0)
(0.925193 -0.00707244 0)
(0.919645 -0.00438405 0)
(0.91736 -0.00214895 0)
(0.917805 -0.000292397 0)
(0.920752 0.00134091 0)
(0.925902 0.0028691 0)
(0.932914 0.00434024 0)
(0.941542 0.00577774 0)
(0.951602 0.0071924 0)
(0.962943 0.00859114 0)
(0.975418 0.00999988 0)
(0.965075 0.261713 0)
(0.968939 0.0930214 0)
(0.913485 0.0126296 0)
(0.842408 -0.00620335 0)
(0.789314 -0.00739459 0)
(0.754695 -0.00512856 0)
(0.731757 -0.00305671 0)
(0.716567 -0.00168635 0)
(0.707146 -0.000765217 0)
(0.702097 -6.28419e-05 0)
(0.700504 0.000411688 0)
(0.701235 0.000835058 0)
(0.703923 0.00127483 0)
(0.708437 0.00172886 0)
(0.714631 0.0021933 0)
(0.722351 0.00266383 0)
(0.73145 0.00313264 0)
(0.741596 0.00363046 0)
(0.0358813 -0.0214615 -7.3448e-21)
(0.0811677 -0.0612583 4.89391e-21)
(0.133522 -0.0954809 0)
(0.206899 -0.116324 0)
(0.294607 -0.121152 0)
(0.362111 -0.126824 -5.51957e-21)
(0.433026 -0.103062 0)
(0.488534 -0.090655 0)
(0.531109 -0.086429 0)
(0.569065 -0.041544 0)
(0.58445 -0.00750414 4.38093e-21)
(0.586786 -0.00977624 0)
(0.583622 -0.00778633 0)
(0.566636 0.0204656 0)
(0.539495 0.0371652 0)
(0.505824 0.0442469 6.298e-21)
(0.470277 0.0428653 0)
(0.435579 0.039632 0)
(0.398899 0.045184 0)
(0.363712 0.0391635 0)
(0.332737 0.0263464 0)
(0.303993 0.0170152 0)
(0.278922 0.0137791 0)
(0.241088 0.0276316 8.40387e-21)
(0.202797 0.0337816 -8.91521e-21)
(0.159477 0.0383953 9.51813e-21)
(0.111031 0.0435174 1.02464e-20)
(0.0572866 0.0490958 0)
(-0.00265843 0.0544811 0)
(-0.0694121 0.0596498 -1.1497e-20)
(-0.142887 0.0650561 -1.1288e-20)
(-0.223406 0.0708408 0)
(-0.310874 0.076875 0)
(-0.404979 0.0829348 -1.0911e-20)
(-0.505212 0.0887706 0)
(-0.610885 0.0941426 0)
(-0.721173 0.0988462 1.09263e-20)
(-0.835161 0.102728 0)
(-0.951885 0.105692 1.11306e-20)
(-1.07038 0.107701 2.25595e-20)
(-1.18971 0.108766 0)
(-1.30902 0.10894 0)
(-1.42752 0.108303 0)
(-1.54452 0.106952 0)
(-1.65943 0.104993 0)
(-1.77177 0.102527 2.51149e-20)
(-1.88112 0.0996515 2.55967e-20)
(-1.98717 0.0964493 2.60782e-20)
(-2.08966 0.0929912 0)
(-2.18839 0.0893336 -2.70232e-20)
(-2.2832 0.0855188 0)
(-2.37397 0.0815762 2.79208e-20)
(-2.46058 0.0775243 2.83448e-20)
(-2.54294 0.0733716 0)
(-2.62096 0.0691188 0)
(-2.69454 0.0647605 0)
(-2.76358 0.0602865 2.98251e-20)
(-2.82797 0.0556832 0)
(-2.88758 0.0509357 0)
(-2.94227 0.0460294 0)
(-2.99188 0.0409535 0)
(-3.03624 0.0357055 0)
(-3.07515 0.0302934 0)
(-3.1084 0.0247447 0)
(-3.13579 0.0191292 0)
(-3.15712 0.0135562 -3.14848e-20)
(-3.17224 0.00818321 0)
(-3.1809 0.00325034 0)
(-3.1829 -0.00105109 3.13872e-20)
(-3.17985 -0.00477335 3.12329e-20)
(-3.17169 -0.00825304 0)
(-3.15856 -0.0116207 -3.07581e-20)
(-3.1405 -0.0149276 3.04347e-20)
(-3.11754 -0.018187 0)
(-3.08969 -0.0213959 -2.96138e-20)
(-3.05698 -0.024544 0)
(-3.01946 -0.0276169 0)
(-2.97721 -0.0305976 2.79524e-20)
(-2.93032 -0.0334666 0)
(-2.87893 -0.0362032 -2.65702e-20)
(-2.82321 -0.0387849 0)
(-2.76336 -0.041188 2.49864e-20)
(-2.69962 -0.0433877 2.4126e-20)
(-2.63228 -0.0453586 2.32247e-20)
(-2.56166 -0.0470745 4.45736e-20)
(-2.48811 -0.0485096 -4.26335e-20)
(-2.41205 -0.0496386 0)
(-2.3339 -0.0504378 0)
(-2.25417 -0.0508861 0)
(-2.17335 -0.0509661 -3.44478e-20)
(-2.092 -0.0506653 -3.23543e-20)
(-2.01068 -0.0499774 3.02668e-20)
(-1.92996 -0.0489035 0)
(-1.85044 -0.0474524 -2.61605e-20)
(-1.7727 -0.0456417 -2.41667e-20)
(-1.69729 -0.0434977 -2.22285e-20)
(-1.62476 -0.0410564 0)
(-1.55561 -0.0383621 0)
(-1.49026 -0.0354674 0)
(-1.4291 -0.0324312 -1.52535e-20)
(-1.37244 -0.0293169 0)
(-1.32051 -0.0261889 0)
(-1.27343 -0.0231096 1.10946e-20)
(-1.23127 -0.0201352 0)
(-1.19401 -0.0173119 0)
(-1.16154 -0.0146724 8.03967e-21)
(-1.13372 -0.0122337 0)
(-1.11034 -0.00999765 0)
(-1.09118 -0.00795487 -6.14336e-21)
(-1.07602 -0.00609408 -5.76253e-21)
(-1.06459 -0.00444276 0)
(-1.05672 -0.00318513 5.35404e-21)
(-1.05219 -0.00271275 0)
(-1.04957 -0.004482 -5.39013e-21)
(-1.04669 -0.00954941 0)
(-1.04497 -0.00987361 -5.80368e-21)
(-1.04803 0.000343579 -6.11264e-21)
(-1.05609 0.0059197 0)
(-1.06798 0.00374262 0)
(-1.08047 0.00111662 0)
(-1.0907 -0.0168039 0)
(-1.1006 -0.0116502 0)
(-1.11369 0.00668432 0)
(-1.12879 0.00803906 0)
(-1.14277 0.00664252 -8.82117e-21)
(-1.1569 0.0165725 9.47729e-21)
(-1.16867 0.00557247 0)
(-1.17998 0.00821425 0)
(-1.19131 0.0205896 0)
(-1.20021 0.00519275 0)
(-1.2049 -0.00362761 2.45164e-20)
(-1.20737 0.00033263 0)
(-1.21017 0.00927983 -2.53224e-20)
(-1.20995 0.000741872 2.5498e-20)
(-1.20634 -0.00363221 0)
(-1.2015 -0.0031226 0)
(-1.19446 -0.00796066 0)
(-1.18313 -0.0178021 -2.46278e-20)
(-1.16654 -0.0288803 -2.35976e-20)
(-1.14665 -0.0235217 0)
(-1.12484 -0.0147762 -2.02037e-20)
(-1.10384 0.00378474 -1.97195e-20)
(-1.07999 0.00227799 2.02487e-20)
(-1.04638 -0.0324522 0)
(-1.0084 -0.0284391 0)
(-0.970457 -0.0170215 1.43398e-20)
(-0.930273 -0.0178666 0)
(-0.88555 -0.0199499 0)
(-0.838018 -0.0171012 0)
(-0.784218 -0.0283184 0)
(-0.726224 -0.0365436 -5.50903e-21)
(-0.667457 -0.0251494 -3.4607e-21)
(-0.606143 -0.0241578 0)
(-0.541974 -0.0231474 4.30285e-22)
(-0.471591 -0.0336857 0)
(-0.39987 -0.0386314 0)
(-0.326608 -0.032724 6.54505e-21)
(-0.251104 -0.0359041 0)
(-0.175035 -0.03414 1.00941e-20)
(-0.096199 -0.0330453 0)
(-0.0165511 -0.0344597 0)
(0.0634434 -0.0328211 1.44641e-20)
(0.144659 -0.0299792 0)
(0.222449 -0.0360723 1.44915e-20)
(0.30231 -0.0305183 0)
(0.380554 -0.0281648 0)
(0.455738 -0.0308039 0)
(0.53084 -0.0307971 -1.31832e-20)
(0.604032 -0.0299285 0)
(0.674905 -0.0289738 1.18437e-20)
(0.743387 -0.0278751 0)
(0.809048 -0.0266222 0)
(0.87138 -0.0251986 0)
(0.929751 -0.0235643 0)
(0.983335 -0.0216533 0)
(1.03097 -0.0193702 0)
(1.07116 -0.0165584 0)
(1.10095 -0.0122423 -1.11227e-20)
(1.11728 -0.00285976 0)
(1.08219 0.00874753 0)
(0.0501562 -0.170848 2.18188e-20)
(0.121247 -0.219107 -1.51623e-20)
(0.188075 -0.221658 0)
(0.247776 -0.219305 7.739e-21)
(0.296486 -0.206333 0)
(0.333681 -0.186188 3.38129e-21)
(0.363396 -0.160893 -7.078e-21)
(0.386369 -0.128834 -7.00948e-21)
(0.400582 -0.0977459 0)
(0.409797 -0.0654092 -7.48503e-21)
(0.417302 -0.0313129 -3.65187e-21)
(0.418719 0.00147734 0)
(0.410136 0.0320965 0)
(0.396206 0.058067 0)
(0.377274 0.0778994 0)
(0.351814 0.0907887 -4.25937e-21)
(0.319246 0.0974223 0)
(0.280201 0.0995377 8.53075e-21)
(0.23573 0.0982283 0)
(0.188938 0.0954342 0)
(0.135792 0.0961757 -8.57292e-21)
(0.0767047 0.101282 0)
(0.00740531 0.112658 9.48024e-21)
(-0.0646095 0.123479 -5.02034e-21)
(-0.140905 0.135192 4.97889e-21)
(-0.223644 0.14854 -4.94546e-21)
(-0.313467 0.16343 -4.9237e-21)
(-0.410515 0.179334 0)
(-0.514414 0.195605 0)
(-0.624385 0.211697 4.94271e-21)
(-0.739611 0.227196 -4.52498e-21)
(-0.859183 0.241633 0)
(-0.982019 0.254515 0)
(-1.10693 0.265424 5.22376e-21)
(-1.23269 0.274055 0)
(-1.35814 0.280228 0)
(-1.48221 0.28389 -5.67261e-21)
(-1.60396 0.285097 0)
(-1.72259 0.284 5.98523e-21)
(-1.83748 0.28082 -1.26175e-20)
(-1.94816 0.275819 0)
(-2.05428 0.269283 0)
(-2.15565 0.261495 -2.82677e-20)
(-2.25216 0.252727 -2.93641e-20)
(-2.3438 0.243224 -3.04661e-20)
(-2.4306 0.233201 1.57888e-20)
(-2.51265 0.222837 -1.63204e-20)
(-2.59006 0.212275 -5.05824e-20)
(-2.66296 0.201625 3.47738e-20)
(-2.73145 0.190969 1.78923e-20)
(-2.79567 0.180361 0)
(-2.85572 0.169833 -1.8858e-20)
(-2.91169 0.159403 1.93175e-20)
(-2.96366 0.149073 0)
(-3.01171 0.138834 0)
(-3.05587 0.128674 0)
(-3.09619 0.118572 -2.08391e-20)
(-3.1327 0.108508 0)
(-3.16543 0.0984591 4.29164e-20)
(-3.19439 0.0884034 0)
(-3.21961 0.0783196 4.38379e-20)
(-3.24113 0.0681895 0)
(-3.25898 0.057998 -4.44663e-20)
(-3.27324 0.0477344 0)
(-3.28399 0.0374065 4.47832e-20)
(-3.29135 0.0270613 -2.25486e-20)
(-3.29548 0.016808 0)
(-3.29654 0.0068276 -4.46196e-20)
(-3.29465 -0.00270854 -2.19851e-20)
(-3.28846 -0.0118084 -2.1777e-20)
(-3.27773 -0.0206543 0)
(-3.26225 -0.0293253 -2.16872e-20)
(-3.24192 -0.0378553 -2.08883e-20)
(-3.21671 -0.0462431 0)
(-3.18659 -0.0544685 2.00829e-20)
(-3.15157 -0.0625008 -3.98767e-20)
(-3.1117 -0.0703026 0)
(-3.06704 -0.0778313 -1.85835e-20)
(-3.01767 -0.0850414 0)
(-2.96374 -0.091884 5.3046e-20)
(-2.90539 -0.0983084 0)
(-2.84281 -0.104262 -4.9278e-20)
(-2.77625 -0.109692 -1.54608e-20)
(-2.70596 -0.114544 1.57052e-20)
(-2.63226 -0.118765 3.00494e-20)
(-2.55549 -0.122303 -2.86602e-20)
(-2.47605 -0.125108 0)
(-2.39436 -0.127134 0)
(-2.31089 -0.128342 0)
(-2.22613 -0.128699 6.49317e-20)
(-2.14062 -0.128182 1.95849e-20)
(-2.05491 -0.126781 -1.82195e-20)
(-1.96958 -0.124496 0)
(-1.88523 -0.121344 -1.74254e-20)
(-1.80245 -0.117356 1.43683e-20)
(-1.72182 -0.112582 1.31852e-20)
(-1.64392 -0.107084 0)
(-1.56931 -0.100943 0)
(-1.49849 -0.0942548 0)
(-1.43193 -0.0871258 9.06831e-21)
(-1.37003 -0.0796741 0)
(-1.31314 -0.0720231 -1.57852e-20)
(-1.26152 -0.0642981 -2.09223e-20)
(-1.21537 -0.0566207 1.28065e-20)
(-1.17479 -0.0491041 0)
(-1.1398 -0.041848 5.44251e-21)
(-1.11033 -0.0349336 0)
(-1.08624 -0.0284212 8.69376e-21)
(-1.0673 -0.0223493 -4.10081e-21)
(-1.0532 -0.0167378 -3.82226e-21)
(-1.04357 -0.0116052 0)
(-1.03795 -0.00701427 -1.06921e-20)
(-1.03593 -0.00299866 7.09639e-21)
(-1.0376 0.000610804 3.69562e-21)
(-1.04348 0.00389979 0)
(-1.05265 0.00677875 4.05462e-21)
(-1.0633 0.00979876 1.26949e-20)
(-1.07482 0.0127266 0)
(-1.08661 0.0148536 9.62779e-21)
(-1.09953 0.0169257 1.03616e-20)
(-1.11498 0.018695 1.11562e-20)
(-1.13088 0.0181069 0)
(-1.14543 0.0171074 0)
(-1.15949 0.0160567 0)
(-1.17391 0.0149709 -6.59576e-21)
(-1.18692 0.0134051 -7.25459e-21)
(-1.20027 0.0120707 0)
(-1.21186 0.010211 -1.57918e-20)
(-1.22072 0.00777263 -1.70737e-20)
(-1.22883 0.0069263 0)
(-1.23618 0.00535393 -1.83313e-20)
(-1.24138 0.00253335 -3.76027e-20)
(-1.243 -0.000702602 1.90487e-20)
(-1.24256 -0.00305629 1.93323e-20)
(-1.24034 -0.00439928 0)
(-1.23475 -0.00638476 0)
(-1.22578 -0.00828916 0)
(-1.21404 -0.0100709 1.83922e-20)
(-1.19979 -0.0121876 -1.88736e-20)
(-1.18245 -0.0157748 -3.36041e-20)
(-1.16165 -0.0208466 1.55772e-20)
(-1.13615 -0.0261861 -1.52073e-20)
(-1.10654 -0.0299601 -1.51695e-20)
(-1.07507 -0.0302255 0)
(-1.04132 -0.032319 0)
(-1.00238 -0.0360582 1.18907e-20)
(-0.959093 -0.0398456 0)
(-0.912691 -0.0431278 0)
(-0.862425 -0.046416 -1.51442e-20)
(-0.808418 -0.0492421 0)
(-0.751534 -0.0500031 -5.42449e-21)
(-0.691854 -0.0530346 2.53656e-21)
(-0.627717 -0.0564315 0)
(-0.560401 -0.0594765 -7.19619e-22)
(-0.489639 -0.0615041 0)
(-0.417713 -0.060775 0)
(-0.343187 -0.0625111 -4.62764e-21)
(-0.266032 -0.0638047 1.02416e-20)
(-0.189613 -0.0645929 -7.00839e-21)
(-0.109693 -0.0656791 0)
(-0.0279892 -0.0660564 0)
(0.0534814 -0.0663 9.15005e-21)
(0.137514 -0.0644091 0)
(0.216751 -0.0629358 9.15691e-21)
(0.296983 -0.062275 0)
(0.378084 -0.0603415 0)
(0.455178 -0.0582938 0)
(0.531262 -0.0561539 9.58393e-21)
(0.605804 -0.053966 0)
(0.678366 -0.0516285 -8.74754e-21)
(0.748645 -0.0490823 0)
(0.816249 -0.0462612 0)
(0.880715 -0.0430842 1.34207e-20)
(0.941448 -0.0394492 -1.22536e-20)
(0.997692 -0.0352108 0)
(1.04843 -0.0301539 0)
(1.09247 -0.0238472 0)
(1.1273 -0.0151348 2.53422e-20)
(1.15383 0.00043855 0)
(1.1681 0.0223789 -1.61463e-20)
(0.0418885 -0.340228 4.89368e-22)
(0.0969232 -0.383409 1.87709e-20)
(0.141399 -0.354678 0)
(0.177606 -0.317483 -1.31617e-20)
(0.204251 -0.277906 0)
(0.222217 -0.236766 0)
(0.233216 -0.194234 -1.83006e-22)
(0.238588 -0.150866 5.73296e-21)
(0.238616 -0.107535 5.93957e-21)
(0.233987 -0.0641036 6.00052e-21)
(0.225366 -0.0216735 0)
(0.212416 0.018668 0)
(0.194665 0.0570214 -6.37969e-21)
(0.172713 0.0926257 -1.29462e-20)
(0.146448 0.12372 1.30957e-20)
(0.115063 0.149071 0)
(0.0776233 0.168618 1.33182e-20)
(0.033425 0.183463 -6.82852e-21)
(-0.0180469 0.195334 0)
(-0.0770446 0.205981 1.29037e-20)
(-0.144052 0.218015 6.49462e-21)
(-0.218399 0.23306 -1.23482e-20)
(-0.299697 0.25133 -6.32068e-21)
(-0.386776 0.271495 0)
(-0.479804 0.293258 1.20194e-20)
(-0.57854 0.316249 1.20287e-20)
(-0.682276 0.339815 0)
(-0.790123 0.363148 1.22508e-20)
(-0.901029 0.38545 0)
(-1.01382 0.405965 1.27697e-20)
(-1.1273 0.423986 6.60504e-21)
(-1.24031 0.43893 0)
(-1.35181 0.450377 0)
(-1.46092 0.458093 0)
(-1.56695 0.46202 0)
(-1.66939 0.462266 0)
(-1.76793 0.459072 0)
(-1.86242 0.45278 1.75402e-20)
(-1.95284 0.443794 -2.73231e-20)
(-2.03929 0.432551 0)
(-2.12192 0.419489 0)
(-2.20094 0.405025 0)
(-2.27657 0.389538 -3.55778e-22)
(-2.34901 0.373358 2.22868e-20)
(-2.41847 0.35676 4.6639e-20)
(-2.48513 0.339967 -4.83534e-20)
(-2.54911 0.32315 -2.51357e-20)
(-2.61054 0.306432 2.57325e-20)
(-2.66949 0.289896 1.83168e-22)
(-2.72601 0.27359 2.74765e-20)
(-2.78014 0.257539 0)
(-2.83186 0.241742 2.8889e-20)
(-2.88117 0.226185 1.1688e-22)
(-2.92802 0.210846 0)
(-2.97237 0.195692 0)
(-3.01415 0.180693 -3.12504e-20)
(-3.05328 0.165814 0)
(-3.0897 0.151026 0)
(-3.12329 0.136305 3.26625e-20)
(-3.15398 0.12163 6.57189e-20)
(-3.18167 0.106993 -3.29744e-20)
(-3.20624 0.0923912 0)
(-3.22761 0.0778338 3.33075e-20)
(-3.24566 0.0633369 0)
(-3.26027 0.0489215 3.38704e-20)
(-3.27129 0.0346045 3.33537e-20)
(-3.27853 0.0203836 -6.7069e-20)
(-3.28176 0.00622396 -3.36847e-20)
(-3.28074 -0.00794871 0)
(-3.27522 -0.0221609 6.54592e-20)
(-3.26511 -0.0363237 0)
(-3.2503 -0.0503787 9.50811e-20)
(-3.23069 -0.0642781 6.26031e-20)
(-3.20623 -0.0779737 6.14009e-20)
(-3.17688 -0.0914123 -6.00802e-20)
(-3.14266 -0.104534 8.74128e-20)
(-3.10357 -0.117273 0)
(-3.05967 -0.129558 0)
(-3.01104 -0.141314 -5.3734e-20)
(-2.95778 -0.152461 -7.72237e-20)
(-2.90005 -0.162918 0)
(-2.83801 -0.172601 2.33461e-20)
(-2.77188 -0.181424 0)
(-2.70192 -0.189304 -6.5307e-20)
(-2.62841 -0.196155 1.45464e-21)
(-2.55169 -0.201898 -1.46544e-21)
(-2.47213 -0.206455 3.77132e-20)
(-2.39012 -0.209757 0)
(-2.30613 -0.211744 -3.34973e-20)
(-2.22064 -0.212365 1.43388e-21)
(-2.13414 -0.211586 0)
(-2.04721 -0.209389 0)
(-1.96038 -0.205774 0)
(-1.87427 -0.200765 2.2242e-20)
(-1.78945 -0.194407 0)
(-1.70652 -0.18677 0)
(-1.62608 -0.177947 0)
(-1.5487 -0.168056 0)
(-1.47491 -0.157237 0)
(-1.40523 -0.145649 1.37217e-20)
(-1.34011 -0.133468 0)
(-1.27995 -0.12088 1.05181e-20)
(-1.22507 -0.108076 9.48464e-21)
(-1.17574 -0.0952468 -8.5544e-21)
(-1.13212 -0.0825743 0)
(-1.09432 -0.0702282 -7.00844e-21)
(-1.06234 -0.0583596 0)
(-1.03609 -0.0470974 -5.88749e-21)
(-1.01542 -0.0365478 5.48768e-21)
(-1.00006 -0.026797 1.56382e-20)
(-0.9897 -0.0179209 0)
(-0.983957 -0.0100039 1.46402e-20)
(-0.982406 -0.00314181 4.7188e-21)
(-0.984805 0.00262486 0)
(-0.99127 0.00754426 1.02463e-20)
(-1.00113 0.0125473 1.08212e-20)
(-1.01265 0.0179922 -1.7509e-20)
(-1.0251 0.0222239 0)
(-1.03877 0.024761 -6.91996e-21)
(-1.05372 0.0261672 -7.49383e-21)
(-1.07044 0.0265301 -2.39675e-20)
(-1.08844 0.0271342 0)
(-1.10544 0.0278989 0)
(-1.12145 0.0273344 0)
(-1.13741 0.0260446 -1.01463e-20)
(-1.15255 0.0243012 0)
(-1.16674 0.0219974 0)
(-1.18015 0.0196757 1.21089e-20)
(-1.19126 0.0167698 1.26487e-20)
(-1.20076 0.0130061 0)
(-1.20947 0.00908892 0)
(-1.21604 0.00557668 2.78774e-20)
(-1.21942 0.00203047 0)
(-1.22046 -0.00265018 -2.85968e-20)
(-1.21934 -0.00695834 -2.90059e-20)
(-1.21502 -0.0113518 0)
(-1.20749 -0.0163232 0)
(-1.19733 -0.0218494 2.8333e-20)
(-1.1846 -0.0272558 -3.4256e-22)
(-1.16884 -0.0318495 -3.92276e-22)
(-1.14935 -0.0365208 0)
(-1.12518 -0.0410487 4.79088e-20)
(-1.09667 -0.0470632 0)
(-1.06641 -0.0534419 0)
(-1.03378 -0.0577606 0)
(-0.99604 -0.0620881 -1.77337e-20)
(-0.953882 -0.0672386 0)
(-0.908432 -0.072374 2.92832e-20)
(-0.859285 -0.0773175 1.16653e-20)
(-0.806731 -0.0824717 0)
(-0.751385 -0.086003 7.36345e-21)
(-0.692174 -0.0895373 0)
(-0.628819 -0.093617 0)
(-0.562473 -0.0977155 3.01985e-21)
(-0.493558 -0.101145 1.614e-21)
(-0.422824 -0.102368 0)
(-0.349177 -0.104363 1.02218e-20)
(-0.273219 -0.105285 -8.01924e-21)
(-0.196692 -0.106413 0)
(-0.117829 -0.108359 0)
(-0.0376117 -0.108847 0)
(0.0425469 -0.108833 -4.25693e-20)
(0.124281 -0.106504 0)
(0.204015 -0.103799 -1.54265e-20)
(0.282954 -0.103096 0)
(0.362639 -0.0994454 0)
(0.439744 -0.096282 0)
(0.515357 -0.0932718 0)
(0.589255 -0.0900314 0)
(0.661167 -0.0864841 0)
(0.730809 -0.0825861 -2.45633e-20)
(0.797846 -0.0782435 0)
(0.861864 -0.0733342 -1.11603e-20)
(0.922326 -0.0677001 2.97655e-20)
(0.978557 -0.0611252 0)
(1.02968 -0.053306 0)
(1.07468 -0.0436652 -1.45472e-20)
(1.11189 -0.0312153 -1.40672e-20)
(1.14107 -0.0123703 1.27741e-20)
(1.1638 0.0154308 1.38928e-20)
(0.0217294 -0.447818 -3.73333e-20)
(0.0544187 -0.453043 -2.62529e-20)
(0.0716321 -0.405231 -1.39994e-20)
(0.0846325 -0.353368 -6.13923e-21)
(0.0926299 -0.30089 0)
(0.0954695 -0.248204 1.05775e-20)
(0.0935164 -0.195453 -5.1508e-21)
(0.0872096 -0.142851 0)
(0.0767926 -0.0907037 -5.25226e-21)
(0.0623848 -0.039311 0)
(0.0441185 0.0108375 1.07163e-20)
(0.0219787 0.059208 0)
(-0.00412848 0.105271 5.59944e-21)
(-0.0342946 0.148344 1.11421e-20)
(-0.0687916 0.18759 -1.10169e-20)
(-0.108208 0.222499 0)
(-0.153329 0.253169 -1.06081e-20)
(-0.204929 0.280412 0)
(-0.263605 0.305543 0)
(-0.329633 0.330044 -9.92357e-21)
(-0.402912 0.355346 0)
(-0.482773 0.382215 1.86508e-22)
(-0.568331 0.410518 0)
(-0.658681 0.439566 0)
(-0.75303 0.468737 -5.12828e-23)
(-0.850347 0.497296 -9.39035e-21)
(-0.949477 0.524368 -9.55458e-21)
(-1.04926 0.54906 -9.62847e-21)
(-1.14862 0.570583 0)
(-1.24658 0.588313 -2.05039e-20)
(-1.34233 0.601816 0)
(-1.43526 0.610862 -1.12366e-20)
(-1.52496 0.615418 0)
(-1.61122 0.61563 0)
(-1.69403 0.611792 1.2831e-20)
(-1.77349 0.604307 0)
(-1.84982 0.593646 -1.40517e-20)
(-1.92329 0.580311 5.11884e-22)
(-1.99419 0.564801 3.02064e-20)
(-2.06283 0.547593 -3.20412e-20)
(-2.12947 0.529118 0)
(-2.19435 0.509754 0)
(-2.25765 0.489819 -1.84528e-20)
(-2.31952 0.469571 0)
(-2.38003 0.449213 -1.90698e-20)
(-2.43925 0.428893 1.97607e-20)
(-2.49719 0.408716 2.04383e-20)
(-2.55381 0.388748 0)
(-2.60908 0.369021 -2.17415e-20)
(-2.66292 0.349543 -2.23614e-20)
(-2.71524 0.330303 4.63492e-20)
(-2.76593 0.311276 -2.35246e-20)
(-2.81489 0.292427 -2.4063e-20)
(-2.86198 0.273714 0)
(-2.90707 0.255095 0)
(-2.95003 0.236526 2.54786e-20)
(-2.99069 0.217966 0)
(-3.02893 0.199379 0)
(-3.06458 0.180734 -5.31047e-20)
(-3.09748 0.162004 -5.36519e-20)
(-3.12747 0.143172 0)