/*--------------------------------*- C++ -*----------------------------------*\
  =========                 |
  \\      /  F ield         | OpenFOAM: The Open Source CFD Toolbox
   \\    /   O peration     | Website:  https://openfoam.org
    \\  /    A nd           | Version:  9
     \\/     M anipulation  |
\*---------------------------------------------------------------------------*/
FoamFile
{
    format      ascii;
    class       volScalarField;
    location    "0.22";
    object      epsilon;
}
// * * * * * * * * * * * * * * * * * * * * * * * * * * * * * * * * * * * * * //

dimensions      [0 2 -3 0 0 0 0];

internalField   nonuniform List<scalar> 
12225
(
208.878
125.273
81.4066
60.944
53.1306
51.361
51.9153
52.91
53.5847
53.8659
54.0268
54.4764
55.6246
57.8286
61.8766
73.1602
112.053
212.202
60.5548
54.8161
42.6053
34.6094
30.3765
28.7185
28.6686
29.5032
30.8189
32.4675
34.408
36.575
38.7888
40.7535
42.3976
46.6962
75.8902
290.422
31.2784
33.3793
29.4451
25.5683
23.0364
21.9065
21.8844
22.6125
23.8489
25.5066
27.5981
30.1399
33.0294
35.9476
38.6976
44.4115
79.8142
333.315
21.8311
24.1496
22.8762
20.8902
19.3571
18.6362
18.6975
19.3606
20.4731
21.9816
23.9245
26.3782
29.3641
32.7585
36.6681
44.8536
86.1677
347.117
17.8705
19.4125
19.0164
17.9701
17.0593
16.646
16.7937
17.4152
18.4145
19.7606
21.5
23.7351
26.5763
30.1179
34.8885
45.2275
89.7765
336.384
15.9555
16.7375
16.5751
15.9954
15.4703
15.2773
15.4951
16.0831
16.9831
18.181
19.7252
21.725
24.3435
27.8456
33.1207
44.8161
89.2802
310.087
14.961
15.149
14.9755
14.6127
14.3178
14.2717
14.5354
15.0895
15.9018
16.9722
18.3497
20.1427
22.5392
25.9107
31.3712
43.5626
85.457
274.924
14.4274
14.1834
13.9123
13.6325
13.4647
13.5064
13.7905
14.3062
15.0403
16.0051
17.2511
18.8826
21.0944
24.3063
29.7137
41.6758
79.3914
235.569
14.1381
13.5935
13.2054
12.9382
12.83
12.9137
13.1951
13.6672
14.3316
15.2125
16.3632
17.8834
19.9633
23.0263
28.2352
39.4621
72.1321
195.773
13.982
13.2358
12.7402
12.4513
12.3596
12.4517
12.7119
13.1363
13.7398
14.5579
15.6486
17.1075
19.1135
22.0645
27.015
37.2358
64.6308
158.732
13.8992
13.0227
12.4398
12.1157
12.0145
12.0917
12.3175
12.6926
13.2447
14.021
15.0853
16.5309
18.5225
21.4161
26.1185
35.2718
57.701
126.928
13.8602
12.9091
12.2663
11.9082
11.7855
11.8358
12.0231
12.3543
12.8692
13.6256
14.6946
16.1698
18.2033
21.107
25.6411
33.9071
52.4263
103.881
13.8395
12.8402
12.1528
11.7632
11.6139
11.6317
11.7792
12.0709
12.5579
13.3092
14.4047
15.9417
18.0636
21.0396
25.4833
32.9879
48.1038
85.0791
13.8293
12.7976
12.076
11.6564
11.475
11.4531
11.5566
11.8102
12.2779
13.0417
14.1941
15.8416
18.1247
21.2729
25.7548
32.6905
45.0016
70.8137
13.8261
12.7748
12.0295
11.5838
11.3683
11.3039
11.3647
11.5875
12.0493
12.8469
14.0901
15.9033
18.4355
21.89
26.6114
33.3199
43.704
61.9034
13.8264
12.7638
12.0031
11.5356
11.2873
11.1834
11.2095
11.4147
11.8873
12.7388
14.101
16.1259
18.9872
22.8865
28.0851
35.0086
44.4942
58.3061
13.8264
12.756
11.9842
11.4975
11.2193
11.0838
11.0891
11.2928
11.7897
12.7029
14.1853
16.4211
19.6198
24.0037
29.7993
37.2561
46.7055
58.6312
13.822
12.7426
11.9589
11.4507
11.1441
10.9861
10.9845
11.198
11.7192
12.673
14.2227
16.5714
19.9517
24.5997
30.7199
38.4643
47.9192
59.0109
13.8091
12.7158
11.9134
11.3753
11.0365
10.8586
10.8539
11.0723
11.593
12.5291
14.0348
16.3062
19.5691
24.0485
29.9218
37.2657
46.0221
55.8909
13.7924
12.6858
11.8644
11.2958
10.9252
10.7243
10.7031
10.8983
11.3706
12.2118
13.5513
15.5582
18.4355
22.4043
27.6666
34.345
42.4067
51.5391
13.7816
12.6732
11.847
11.2655
10.8804
10.6672
10.6308
10.7967
11.2107
11.9459
13.1082
14.8375
17.3091
20.7309
25.3284
31.3017
38.7368
47.4466
13.7834
12.6963
11.8904
11.3204
10.941
10.7285
10.6828
10.8207
11.1774
11.8121
12.8108
14.288
16.3905
19.3035
23.2513
28.4782
35.1782
43.3323
13.8162
12.7981
12.0519
11.5207
11.1632
10.9586
10.905
11.0152
11.3193
11.8672
12.7298
14.0009
15.8016
18.2892
21.6658
26.1748
32.059
39.4281
13.9268
13.0713
12.4353
11.9593
11.6201
11.4104
11.3333
11.4058
11.6569
12.1299
12.8834
13.9937
15.5598
17.7115
20.619
24.4978
29.5877
36.0603
14.2322
13.7044
13.2226
12.7796
12.4126
12.1471
12.005
12.0135
12.2019
12.606
13.271
14.2566
15.6419
17.5317
20.0639
23.4168
27.8035
33.4094
15.0179
15.0756
14.7303
14.2084
13.6901
13.2611
12.9787
12.8784
12.9846
13.3191
13.909
14.7951
16.0375
17.7195
19.9513
22.8779
26.6811
31.5388
17.0128
17.9936
17.557
16.6441
15.7051
14.9274
14.3888
14.1163
14.1122
14.3705
14.8915
15.6933
16.8177
18.3315
20.3272
22.9263
26.2851
30.567
22.4198
24.4987
23.0242
20.9119
19.0326
17.5959
16.6298
16.0993
15.9468
16.1157
16.5674
17.2935
18.3209
19.7104
21.5506
23.9541
27.0594
31.0125
40.2724
40.7004
34.814
29.4873
25.5682
22.8742
21.1725
20.2406
19.8817
19.9423
20.3262
21.0007
21.9929
23.38
25.2689
27.7767
31.0292
35.1519
135.602
96.92
71.826
55.4323
44.9364
38.6564
35.2784
33.6891
33.1118
33.1408
33.6531
34.6923
36.3827
38.8704
42.2814
46.7016
52.2077
58.892
103.054
182.71
207.973
220.731
224.026
220.491
212.062
203.011
198.064
196.083
196.946
200.787
206.768
212.193
214.11
212.367
217.38
241.209
274.799
313.085
352.967
392.537
430.645
466.622
500.096
530.885
558.922
584.216
606.823
626.83
644.343
659.48
672.371
683.151
691.966
698.972
704.337
708.247
710.908
712.076
711.085
708.029
702.987
696.02
687.184
676.541
664.16
650.123
634.524
617.473
599.091
579.513
558.884
537.361
515.106
492.287
469.075
445.642
422.157
398.783
375.677
352.987
330.849
309.385
288.704
268.9
250.05
232.216
215.444
199.765
185.196
171.739
159.386
148.117
137.905
128.711
120.492
113.199
106.78
101.176
96.3307
92.1859
88.6855
85.7768
83.4111
81.5448
80.138
79.1544
78.5598
78.3225
78.4148
78.8144
79.5148
80.498
81.7082
83.1415
84.7908
86.6454
88.6916
90.9121
93.2866
95.7914
98.3996
101.081
103.802
106.528
109.221
111.845
114.371
116.779
119.07
121.281
123.343
125.211
126.876
128.33
129.569
130.589
131.391
131.977
132.353
132.525
132.504
132.301
131.93
131.405
130.743
129.961
129.076
128.105
127.067
125.978
124.855
123.713
122.565
121.423
120.296
119.193
118.118
117.074
116.061
115.077
114.118
113.178
112.249
111.322
110.387
109.433
108.447
107.418
106.333
105.183
103.956
102.642
101.232
99.7186
98.0974
96.3915
94.7082
93.3889
93.0098
92.9173
92.6982
92.3124
91.7457
90.9851
90.0156
88.8197
87.3783
85.6731
83.692
81.4328
78.9029
76.1198
17.3224
17.3657
17.39
75.0991
17.7844
76.7521
159.534
203.917
198.42
187.877
180.104
177.55
181.795
195.238
216.45
245.552
283.759
331.691
382.883
420.081
440.403
444.548
437.566
425.75
412.656
399.703
387.298
375.621
364.803
354.923
346
337.997
330.841
324.438
318.691
313.505
308.794
304.483
300.512
296.834
293.417
290.243
287.305
284.611
282.168
280.073
277.638
274.763
271.42
267.595
263.281
258.475
253.181
247.409
241.177
234.506
227.426
219.972
212.184
204.107
195.79
187.287
178.653
169.944
161.218
152.533
143.944
135.505
127.267
119.277
111.577
104.205
97.1945
90.5709
84.3558
78.5645
73.2068
68.287
63.8042
59.7531
56.1235
52.9016
50.0702
47.6091
45.4956
43.7058
42.2143
40.9958
40.0258
39.2807
38.7392
38.3819
38.1919
38.1543
38.2563
38.4864
38.8349
39.2934
39.8567
40.5207
41.2586
42.0613
42.9221
43.8342
44.7906
45.7834
46.804
47.8431
48.891
49.9374
50.972
51.9848
52.9671
53.9123
54.8171
55.6837
56.5211
57.3473
58.1275
58.8445
59.4945
60.0754
60.5863
61.0269
61.398
61.7006
61.9367
62.1089
62.22
62.2735
62.2731
62.2231
62.1278
61.9918
61.8198
61.6165
61.3869
61.1355
60.867
60.5857
60.2957
60.0006
59.7037
59.4078
59.1149
58.8266
58.5439
58.267
57.9956
57.7288
57.4648
57.2016
56.9363
56.666
56.3869
56.0953
55.7869
55.4578
55.1039
54.7216
54.3085
53.8647
53.396
52.9205
52.4749
52.1127
51.8376
51.5319
51.1578
50.7098
50.1828
49.5732
48.8773
48.0913
47.2115
46.2356
45.1639
44.0006
42.7533
41.4116
38.2583
36.7239
35.3278
35.5858
32.8017
32.8749
791.819
351.766
280.659
255.699
246.897
251.354
270.823
298.056
332.668
372.635
413.422
447.828
467.766
468.518
452.606
426.451
396.947
368.875
344.259
323.392
305.904
291.312
279.17
269.086
260.711
253.741
247.913
243.01
238.856
235.314
232.276
229.657
227.388
225.411
223.673
222.125
220.721
219.415
218.157
216.83
215.301
213.516
211.442
209.054
206.33
203.253
199.814
196.007
191.833
187.298
182.414
177.2
171.678
165.878
159.833
153.579
147.157
140.609
133.982
127.319
120.667
114.072
107.576
101.221
95.0476
89.0901
83.3809
77.9479
72.8148
68.0005
63.5194
59.3813
55.5912
52.15
49.0542
46.2969
43.8674
41.7522
39.9355
38.3993
37.1243
36.0904
35.277
34.6641
34.232
33.9627
33.8392
33.8464
33.9704
34.1988
34.5206
34.9253
35.4028
35.9384
36.5218
37.1456
37.8039
38.4909
39.2009
39.9281
40.6665
41.41
42.1527
42.8887
43.6123
44.3186
45.0036
45.6645
46.2999
46.9099
47.4956
48.0574
48.5888
49.0792
49.5265
49.9297
50.2884
50.6027
50.8732
51.1009
51.2871
51.4335
51.542
51.6147
51.6539
51.6621
51.642
51.596
51.5271
51.4379
51.3311
51.2094
51.0753
50.9314
50.78
50.6233
50.4633
50.3015
50.1397
49.979
49.8202
49.6641
49.5108
49.3603
49.2121
49.0656
48.9195
48.7724
48.6225
48.4678
48.3061
48.1348
47.9518
47.7552
47.544
47.3191
47.085
46.85
46.6244
46.4119
46.1934
45.9349
45.6229
45.2526
44.8255
44.3366
43.7816
43.1571
42.4599
41.6884
40.8431
39.9272
38.9466
37.9047
36.6889
35.484
34.2854
33.1617
31.9047
30.8077
888.657
461.967
382.135
353.656
346.677
354.034
367.47
385.919
406.371
424.72
436.433
437.607
426.589
405.114
377.635
348.993
322.678
300.313
282.088
267.5
255.876
246.601
239.162
233.15
228.236
224.168
220.757
217.866
215.402
213.3
211.515
210.009
208.751
207.706
206.837
206.104
205.465
204.87
204.273
203.577
202.717
201.648
200.334
198.744
196.851
194.632
192.07
189.153
185.873
182.231
178.231
173.885
169.208
164.223
158.955
153.436
147.7
141.785
135.731
129.58
123.375
117.16
110.976
104.867
98.8719
93.0289
87.3734
81.9375
76.7496
71.8343
67.2122
62.8992
58.9072
55.2432
51.9103
48.9072
46.2287
43.8663
41.8084
40.0408
38.5472
37.3098
36.3099
35.5282
34.945
34.5414
34.2989
34.1998
34.2276
34.3666
34.6023
34.9212
35.3077
35.7489
36.235
36.7583
37.312
37.89
38.4868
39.097
39.7153
40.3368
40.9567
41.5705
42.1741
42.7639
43.3367
43.8902
44.4223
44.9316
45.4167
45.8758
46.3062
46.7044
47.0678
47.3952
47.6863
47.9409
48.1594
48.3425
48.4911
48.6066
48.6904
48.7443
48.77
48.7698
48.7456
48.6997
48.6344
48.552
48.4548
48.345
48.2248
48.0963
47.9614
47.8221
47.6799
47.5364
47.3929
47.2505
47.1103
46.9729
46.8388
46.7085
46.5819
46.459
46.3393
46.2221
46.1067
45.992
45.8765
45.7591
45.6382
45.5128
45.3824
45.2477
45.1105
44.9734
44.837
44.696
44.5373
44.3469
44.1171
43.8431
43.5188
43.144
42.7135
42.2224
41.6667
41.0435
40.3519
39.5934
38.7712
37.8892
36.9408
35.9349
34.8916
33.8126
32.7114
31.6332
1230.58
606.161
504.592
467.706
448.501
435.298
427.284
422.232
417.191
409.394
396.947
379.309
357.483
333.684
310.449
289.709
272.394
258.57
247.805
239.502
233.086
228.075
224.086
220.831
218.104
215.766
213.73
211.952
210.409
209.092
207.995
207.11
206.422
205.91
205.545
205.291
205.109
204.954
204.777
204.503
204.082
203.469
202.629
201.526
200.13
198.416
196.363
193.955
191.181
188.037
184.523
180.648
176.422
171.863
166.993
161.838
156.428
150.798
144.982
139.02
132.95
126.815
120.654
114.51
108.422
102.43
96.5703
90.8795
85.39
80.1317
75.1309
70.4104
65.9891
61.8812
58.097
54.6419
51.5174
48.7204
46.2443
44.079
42.2115
40.6263
39.3062
38.2326
37.3861
36.7467
36.2945
36.0099
35.8736
35.8671
35.9727
36.1736
36.4513
36.792
37.1845
37.6194
38.0887
38.5856
39.1037
39.6373
40.1812
40.7306
41.281
41.8281
42.368
42.8974
43.4131
43.9121
44.392
44.8504
45.285
45.6935
46.0736
46.4235
46.7417
47.0272
47.2789
47.4963
47.6793
47.8281
47.9433
48.0258
48.0767
48.0973
48.0893
48.0545
47.9948
47.9124
47.8096
47.6886
47.5519
47.4019
47.2409
47.0712
46.895
46.7143
46.5312
46.3474
46.1645
45.9838
45.8066
45.6339
45.4667
45.3055
45.1509
45.0032
44.8626
44.7288
44.6018
44.481
44.366
44.2558
44.1499
44.0476
43.9486
43.8528
43.7607
43.6721
43.5845
43.4924
43.3875
43.2621
43.1106
42.9278
42.7082
42.446
42.1357
41.7739
41.355
40.8745
40.3297
39.7198
39.0453
38.3074
37.5073
36.645
35.7269
34.7544
33.7488
32.7324
1529.77
750.492
626.871
568.585
523.425
484.855
451.543
422.386
396.076
371.451
347.848
325.237
304.122
285.238
269.188
256.203
246.125
238.537
232.919
228.768
225.653
223.236
221.268
219.582
218.075
216.697
215.432
214.286
213.276
212.419
211.727
211.203
210.843
210.632
210.546
210.553
210.619
210.702
210.75
210.706
210.523
210.16
209.578
208.742
207.621
206.187
204.419
202.298
199.814
196.959
193.734
190.144
186.198
181.91
177.3
172.391
167.208
161.78
156.139
150.319
144.355
138.283
132.139
125.963
119.791
113.66
107.609
101.673
95.8861
90.2822
84.8919
79.7437
74.8627
70.2708
65.9857
62.0209
58.3853
55.0833
52.1145
49.4746
47.155
45.144
43.4267
41.9863
40.8038
39.8595
39.1325
38.6019
38.2465
38.0457
37.9792
38.0273
38.1693
38.3895
38.6744
39.0129
39.3954
39.8135
40.2598
40.7278
41.2117
41.7062
42.2065
42.7081
43.2068
43.6988
44.1804
44.6484
45.0995
45.5307
45.9392
46.3223
46.6775
47.0029
47.2965
47.5578
47.7857
47.9791
48.1372
48.2595
48.3462
48.3975
48.414
48.3968
48.347
48.2662
48.1562
48.019
47.8569
47.6724
47.4681
47.2466
47.0108
46.7634
46.5071
46.2447
45.9786
45.7112
45.4448
45.1814
44.9229
44.6708
44.4266
44.1916
43.9668
43.753
43.551
43.3611
43.1838
43.0191
42.8669
42.7271
42.5993
42.4833
42.3788
42.2856
42.203
42.13
42.0637
41.9998
41.9329
41.8578
41.7697
41.6638
41.5343
41.3753
41.1805
40.9424
40.657
40.3187
39.9232
39.4669
38.9474
38.3628
37.7121
36.9942
36.2109
35.3655
34.4814
33.5616
1760.12
865.799
711.071
631.67
565.938
506.221
452.924
406.938
368.35
336.496
310.403
289.168
272.105
258.698
248.485
240.978
235.653
231.991
229.516
227.831
226.625
225.673
224.828
224.006
223.172
222.326
221.491
220.697
219.979
219.366
218.878
218.526
218.31
218.22
218.235
218.328
218.468
218.616
218.722
218.74
218.627
218.342
217.846
217.103
216.082
214.754
213.098
211.096
208.738
206.018
202.936
199.498
195.714
191.598
187.167
182.442
177.448
172.209
166.752
161.105
155.299
149.362
143.326
137.222
131.082
124.938
118.823
112.77
106.811
100.979
95.3066
89.8252
84.5645
79.5523
74.8134
70.3692
66.2371
62.43
58.9557
55.8173
53.013
50.5364
48.3773
46.5218
44.9534
43.6531
42.6007
41.7748
41.1533
40.7142
40.4357
40.2951
40.2705
40.3437
40.4994
40.7245
41.0072
41.3378
41.7073
42.108
42.5332
42.9767
43.4328
43.8965
44.363
44.8278
45.2868
45.7358
46.171
46.5888
46.9857
47.3586
47.7046
48.021
48.3055
48.5561
48.7722
48.9526
49.0958
49.2005
49.2661
49.2921
49.2785
49.2259
49.1348
49.0065
48.8424
48.6444
48.4146
48.1555
47.8698
47.5606
47.231
46.8842
46.5236
46.1527
45.7747
45.3928
45.0102
44.6299
44.2544
43.8865
43.5283
43.1821
42.8495
42.5323
42.2318
41.9491
41.6851
41.4406
41.216
41.0115
40.8273
40.6633
40.5193
40.3948
40.2892
40.201
40.1277
40.0662
40.0128
39.9637
39.9148
39.8616
39.799
39.7211
39.6216
39.4936
39.3311
39.1262
38.8755
38.5726
38.2125
37.7899
37.3006
36.7416
36.113
35.419
34.6821
33.8998
1970.96
933.267
754.484
660.753
581.124
507.887
442.974
388.602
345.371
312.32
287.691
269.653
256.67
247.547
241.36
237.364
234.945
233.597
232.917
232.594
232.407
232.21
231.922
231.511
230.981
230.361
229.691
229.017
228.382
227.819
227.356
227.005
226.771
226.647
226.615
226.652
226.727
226.805
226.842
226.799
226.636
226.311
225.783
225.014
223.972
222.627
220.957
218.947
216.588
213.876
210.814
207.412
203.681
199.639
195.306
190.704
185.855
180.785
175.516
170.073
164.48
158.76
152.937
147.033
141.072
135.078
129.074
123.087
117.143
111.269
105.495
99.8506
94.3672
89.075
84.0041
79.1822
74.6348
70.3835
66.4455
62.833
59.5529
56.6067
53.9909
51.6971
49.713
48.0227
46.6079
45.4481
44.5216
43.806
43.2788
42.9152
42.6921
42.5898
42.5911
42.6809
42.8458
43.074
43.3551
43.6801
44.0407
44.4297
44.8404
45.2669
45.7034
46.1448
46.586
47.0222
47.4489
47.8618
48.2566
48.6297
48.9774
49.2963
49.5836
49.8363
50.0521
50.23
50.3685
50.4657
50.5198
50.5297
50.4946
50.4143
50.2888
50.1188
49.9052
49.6495
49.3536
49.0198
48.6509
48.25
47.8205
47.3661
46.8907
46.3983
45.8931
45.3791
44.8605
44.3411
43.8249
43.3154
42.816
42.3299
41.8599
41.4087
40.9786
40.5715
40.1891
39.8328
39.5037
39.2026
38.9298
38.6857
38.47
38.2825
38.1222
37.988
37.8777
37.7891
37.7194
37.6657
37.6247
37.5926
37.5649
37.5366
37.5021
37.4552
37.3897
37.2987
37.1758
37.0131
36.8045
36.5415
36.2169
35.8254
35.3653
34.8404
34.2701
33.6506
2114.72
966.434
767.993
664.608
577.635
498.488
429.524
373.298
330.281
299.024
277.169
262.349
252.613
246.489
242.894
241.023
240.269
240.174
240.398
240.7
240.922
240.97
240.807
240.434
239.879
239.189
238.417
237.616
236.836
236.118
235.489
234.97
234.567
234.274
234.078
233.956
233.876
233.805
233.708
233.553
233.299
232.9
232.308
231.481
230.381
228.977
227.245
225.168
222.738
219.955
216.828
213.368
209.597
205.536
201.211
196.649
191.878
186.923
181.81
176.561
171.198
165.738
160.198
154.593
148.937
143.242
137.522
131.791
126.064
120.361
114.701
109.108
103.609
98.2324
93.0093
87.9708
83.1482
78.5704
74.2639
70.2507
66.5478
63.1666
60.1126
57.3854
54.9796
52.8847
51.0864
49.5671
48.3069
47.2844
46.4774
45.86
45.4086
45.1026
44.9235
44.8545
44.8806
44.9884
45.1658
45.4022
45.688
46.0146
46.3741
46.7594
47.1639
47.5813
48.0058
48.4317
48.8536
49.2664
49.6653
50.0456
50.403
50.7335
51.0331
51.2982
51.5257
51.7123
51.8565
51.9568
52.0104
52.0154
51.9701
51.8733
51.7245
51.5235
51.2707
50.967
50.614
50.2137
49.7686
49.2818
48.7568
48.1975
47.6083
46.9937
46.3584
45.7074
45.0457
44.3782
43.7099
43.0454
42.3894
41.7462
41.1199
40.5142
39.9325
39.3778
38.8528
38.3597
37.9003
37.476
37.0877
36.736
36.4209
36.1422
35.899
35.6902
35.5141
35.3688
35.2521
35.1616
35.0948
35.0486
35.0195
35.0034
34.996
34.9922
34.9868
34.9737
34.9462
34.8966
34.8161
34.6941
34.5221
34.2918
33.9999
33.6479
33.251
32.8053
2205.37
974.796
761.267
652.552
563.699
484.53
416.857
362.863
322.626
294.35
275.423
263.31
255.952
251.818
249.805
249.123
249.202
249.635
250.135
250.513
250.653
250.504
250.056
249.338
248.396
247.294
246.096
244.869
243.669
242.546
241.536
240.664
239.938
239.359
238.912
238.573
238.31
238.083
237.873
237.653
237.375
236.981
236.414
235.62
234.55
233.166
231.436
229.339
226.867
224.021
220.812
217.261
213.395
209.246
204.85
200.244
195.463
190.542
185.511
180.398
175.224
170.006
164.758
159.488
154.203
148.904
143.594
138.273
132.943
127.608
122.276
116.959
111.671
106.436
101.278
96.2282
91.3181
86.5816
82.052
77.7601
73.7332
69.9936
66.5576
63.4352
60.6301
58.14
55.957
54.0689
52.4596
51.1104
50.0009
49.1048
48.3996
47.8647
47.4806
47.2298
47.0957
47.0637
47.1201
47.2527
47.4507
47.7039
48.0033
48.3404
48.7076
49.0975
49.5032
49.9182
50.3362
50.7512
51.1575
51.5497
51.9227
52.2713
52.591
52.8772
53.1258
53.3328
53.4944
53.6085
53.6732
53.6853
53.6424
53.5422
53.3835
53.1652
52.8871
52.5494
52.153
51.6996
51.1915
50.6313
50.0226
49.3694
48.6761
47.9477
47.1895
46.407
45.6059
44.7923
43.9718
43.1505
42.334
41.5277
40.7371
39.9671
39.2222
38.5066
37.8241
37.1779
36.5706
36.0044
35.4809
35.001
34.5652
34.1733
33.8246
33.5179
33.2518
33.0244
32.8338
32.6779
32.5543
32.4608
32.3946
32.3529
32.3325
32.3301
32.3417
32.3627
32.3873
32.4084
32.4169
32.4023
32.3536
32.2609
32.1191
31.9268
31.6942
31.4179
2257.19
967.197
742.744
632.16
545.261
469.854
406.606
356.974
320.623
295.618
279.369
269.409
263.741
260.879
259.759
259.63
259.962
260.391
260.672
260.654
260.259
259.464
258.29
256.788
255.031
253.099
251.079
249.053
247.095
245.268
243.62
242.185
240.981
240.008
239.254
238.693
238.285
237.983
237.78
237.65
237.53
237.347
237.025
236.491
235.68
234.534
233.01
231.077
228.718
225.934
222.735
219.149
215.212
210.966
206.461
201.749
196.88
191.901
186.855
181.78
176.704
171.649
166.632
161.66
156.734
151.851
147.002
142.175
137.36
132.542
127.714
122.869
118.009
113.14
108.278
103.443
98.6641
93.9737
89.4078
85.0031
80.7953
76.8168
73.0955
69.6529
66.504
63.6568
61.1128
58.8673
56.9107
55.2289
53.8052
52.6146
51.6371
50.8531
50.2435
49.7902
49.476
49.2852
49.2029
49.2158
49.3114
49.4786
49.7068
49.9865
50.3087
50.665
51.0476
51.4487
51.8612
52.2783
52.6933
53.0998
53.4918
53.8635
54.2092
54.5235
54.8014
55.0379
55.2283
55.3685
55.4553
55.4867
55.4591
55.3694
55.2153
54.9949
54.7072
54.3517
53.9286
53.439
52.8846
52.2679
51.5921
50.8611
50.0794
49.2521
48.3849
47.4838
46.5552
45.6056
44.6418
43.6706
42.6987
41.7329
40.7795
39.8446
38.9342
38.0535
37.2074
36.4003
35.6358
34.917
34.2462
33.625
33.0543
32.5341
32.0641
31.643
31.2693
30.9412
30.6565
30.413
30.2086
30.0412
29.9085
29.8086
29.7396
29.6994
29.6857
29.6957
29.7252
29.7685
29.8178
29.8633
29.8941
29.9001
29.8738
29.811
29.7171
29.5892
2281.8
950.21
718.367
608.386
525.746
456.118
398.779
354.36
322.191
300.357
286.451
278.193
273.725
271.649
270.956
270.935
271.092
271.094
270.729
269.878
268.492
266.582
264.199
261.426
258.366
255.133
251.84
248.599
245.509
242.654
240.101
237.897
236.068
234.621
233.544
232.806
232.36
232.144
232.152
232.35
232.658
232.978
233.212
233.263
233.041
232.464
231.469
230.004
228.039
225.564
222.585
219.131
215.243
210.977
206.398
201.573
196.573
191.464
186.309
181.16
176.062
171.048
166.144
161.362
156.706
152.173
147.748
143.413
139.143
134.913
130.694
126.462
122.198
117.89
113.534
109.137
104.715
100.293
95.9043
91.5855
87.3769
83.3185
79.448
75.7984
72.3969
69.2633
66.4105
63.8441
61.5632
59.5609
57.8258
56.3369
55.0784
54.0331
53.1834
52.5117
52.0007
51.6344
51.3971
51.2746
51.2533
51.321
51.466
51.6776
51.9456
52.2606
52.6136
52.996
53.3995
53.8165
54.2392
54.6604
55.0733
55.4709
55.8467
56.1945
56.5082
56.7819
57.0101
57.1876
57.3093
57.3714
57.3717
57.3061
57.1713
56.9645
56.6837
56.3276
55.8957
55.3883
54.8066
54.1526
53.4291
52.6398
51.789
50.8818
49.9242
48.9222
47.8829
46.8132
45.7207
44.613
43.4976
42.3823
41.2746
40.1815
39.1103
38.0672
37.0585
36.0896
35.1653
34.2896
33.4658
32.6963
31.9826
31.3254
30.7243
30.1783
29.686
29.2452
28.8534
28.5083
28.2072
27.948
27.7285
27.5471
27.4024
27.2937
27.2198
27.1795
27.1707
27.1895
27.2302
27.285
27.3445
27.3992
27.4411
27.4645
27.4696
27.4539
2287.2
928.039
691.681
583.91
506.676
443.612
392.606
353.507
325.406
306.499
294.625
287.737
284.136
282.522
281.941
281.713
281.369
280.6
279.217
277.128
274.318
270.833
266.766
262.242
257.411
252.429
247.454
242.633
238.099
233.964
230.314
227.21
224.687
222.756
221.401
220.587
220.258
220.336
220.787
221.561
222.555
223.654
224.736
225.68
226.37
226.701
226.579
225.93
224.697
222.851
220.385
217.319
213.694
209.573
205.033
200.16
195.045
189.781
184.451
179.132
173.891
168.779
163.837
159.091
154.556
150.233
146.112
142.174
138.388
134.718
131.122
127.558
123.985
120.368
116.682
112.91
109.051
105.114
101.121
97.1024
93.097
89.1474
85.2974
81.5894
78.0617
74.7463
71.6684
68.8457
66.2883
63.9994
61.9734
60.1976
58.6622
57.3542
56.2584
55.3591
54.64
54.0854
53.6798
53.4082
53.2567
53.212
53.2616
53.3939
53.5977
53.8624
54.1781
54.5353
54.9247
55.3376
55.7654
56.2
56.6335
57.0582
57.4666
57.8515
58.2059
58.5231
58.7964
59.0198
59.1873
59.2935
59.3334
59.3049
59.2035
59.0255
58.768
58.4286
58.0062
57.5001
56.911
56.2401
55.4899
54.6634
53.7649
52.7993
51.7723
50.6904
49.5606
48.3905
47.1879
45.9611
44.7185
43.4685
42.2195
40.9798
39.7573
38.5597
37.3942
36.2675
35.1854
34.1532
33.1752
32.2548
31.3944
30.5952
29.8576
29.1808
28.5633
28.0028
27.4967
27.042
26.6355
26.2746
25.9567
25.68
25.4433
25.246
25.0879
24.9689
24.8884
24.8447
24.8344
24.8521
24.8911
24.9436
25.0022
25.061
25.1167
25.166
2278.03
903.116
664.552
559.931
488.458
431.975
387.112
353.046
328.705
312.434
302.328
296.567
293.613
292.253
291.578
290.93
289.853
288.05
285.353
281.698
277.107
271.676
265.55
258.918
251.988
244.977
238.095
231.535
225.462
220.011
215.283
211.344
208.227
205.936
204.449
203.719
203.679
204.241
205.31
206.809
208.62
210.615
212.662
214.628
216.381
217.797
218.758
219.162
218.924
217.987
216.317
213.914
210.806
207.05
202.726
197.935
192.787
187.397
181.877
176.33
170.849
165.511
160.378
155.497
150.899
146.6
142.6
138.887
135.435
132.205
129.147
126.207
123.325
120.445
117.514
114.493
111.353
108.082
104.683
101.173
97.5794
93.9418
90.3041
86.7139
83.2172
79.8565
76.6685
73.6835
70.9247
68.4078
66.1318
64.0992
62.307
60.7479
59.4112
58.2842
57.3531
56.6033
56.0204
55.5897
55.297
55.1287
55.0719
55.1141
55.2435
55.4486
55.7187
56.0432
56.412
56.8156
57.2444
57.6895
58.1419
58.5931
59.0348
59.4588
59.8572
60.2223
60.5467
60.8232
61.0449
61.2055
61.2988
61.3194
61.2646
61.1299
60.9112
60.6055
60.2105
59.7248
59.1481
58.4812
57.7256
56.884
55.9602
54.9588
53.8854
52.7462
51.5484
50.2997
49.0082
47.6827
46.332
44.9653
43.5916
42.2199
40.8593
39.5184
38.2054
36.928
35.6935
34.5082
33.3776
32.3064
31.2979
30.3544
29.477
28.6655
27.9187
27.2344
26.6096
26.0411
25.5249
25.0577
24.6363
24.2581
23.9214
23.6254
23.37
23.1556
22.9826
22.8507
22.7587
22.7038
22.6819
22.6879
22.716
22.7609
22.8182
22.8827
2256.29
876.611
637.751
536.772
470.945
420.638
381.419
351.918
330.954
317.025
308.461
303.654
301.205
299.977
299.095
297.911
295.969
292.979
288.791
283.374
276.798
269.221
260.865
251.997
242.905
233.877
225.181
217.051
209.679
203.205
197.726
193.29
189.911
187.569
186.217
185.789
186.201
187.354
189.095
191.306
193.864
196.641
199.512
202.347
205.018
207.396
209.358
210.784
211.57
211.626
210.889
209.324
206.93
203.741
199.826
195.281
190.227
184.795
179.122
173.338
167.565
161.909
156.458
151.284
146.438
141.959
137.865
134.159
130.827
127.837
125.144
122.688
120.397
118.198
116.016
113.783
111.444
108.959
106.306
103.479
100.489
97.361
94.1326
90.8499
87.5632
84.3194
81.1645
78.1394
75.2803
72.6165
70.158
67.9201
65.9098
64.1273
62.5683
61.2249
60.0869
59.1427
58.3799
57.7848
57.3439
57.0438
56.8715
56.8144
56.8601
56.9966
57.2125
57.4965
57.8377
58.2258
58.6505
59.1018
59.57
60.0459
60.52
60.9835
61.4275
61.8435
62.2231
62.5582
62.8411
63.0644
63.221
63.3044
63.3085
63.2303
63.0653
62.8091
62.4587
62.0117
61.467
60.8244
60.0848
59.2503
58.324
57.3101
56.2137
55.041
53.7988
52.4949
51.1376
49.7356
48.2982
46.835
45.3555
43.8694
42.3864
40.916
39.4673
38.0492
36.6699
35.3371
34.0576
32.8373
31.6808
30.5917
29.572
28.6227
27.7431
26.9314
26.1846
25.4991
24.8707
24.2951
23.7682
23.2866
22.8475
22.4495
22.0919
21.7749
21.4993
21.2656
21.074
20.9239
20.8136
20.7405
20.7012
20.6917
20.7078
20.7438
2219.06
847.64
610.436
513.55
453.244
408.741
374.735
349.416
331.533
319.735
312.568
308.613
306.599
305.456
304.328
302.567
299.713
295.474
289.72
282.458
273.825
264.059
253.481
242.46
231.378
220.605
210.464
201.22
193.066
186.126
180.462
176.081
172.949
171
170.151
170.302
171.346
173.172
175.591
178.438
181.588
184.925
188.335
191.706
194.927
197.887
200.476
202.585
204.107
204.943
205.008
204.234
202.582
200.048
196.666
192.508
187.683
182.323
176.576
170.596
164.529
158.509
152.653
147.058
141.804
136.952
132.545
128.609
125.148
122.152
119.585
117.395
115.511
113.848
112.316
110.825
109.287
107.637
105.826
103.815
101.59
99.1563
96.5341
93.7584
90.8733
87.9278
84.9726
82.0574
79.228
76.5233
73.9702
71.5975
69.4237
67.4591
65.7074
64.1674
62.8343
61.7008
60.7594
59.9975
59.4031
58.9639
58.6675
58.5016
58.4539
58.5122
58.6646
58.8992
59.2048
59.5701
59.9842
60.4365
60.9164
61.4138
61.9186
62.421
62.9114
63.3802
63.8184
64.2169
64.567
64.8604
65.0891
65.2457
65.3229
65.3145
65.2169
65.0254
64.736
64.3453
63.8512
63.2527
62.5498
61.7439
60.8373
59.8336
58.7374
57.5545
56.2913
54.9555
53.5552
52.0991
50.5967
49.0575
47.4916
45.909
44.32
42.7346
41.1628
39.6144
38.0986
36.6243
35.1996
33.8318
32.527
31.2904
30.1253
29.0339
28.0167
27.0725
26.199
25.3924
24.6483
23.9617
23.3277
22.7417
22.1999
21.6995
21.2392
20.8183
20.4372
20.0969
19.7982
19.542
19.3283
19.1569
19.0263
18.9346
18.8786
18.8529
2173.9
821.197
586.699
493.43
437.598
397.689
367.778
345.738
330.277
320.16
314.104
310.839
309.194
308.146
306.853
304.655
301.077
295.826
288.784
279.997
269.666
258.12
245.778
233.113
220.601
208.681
197.716
187.98
179.648
172.806
167.463
163.568
161.034
159.744
159.574
160.391
162.067
164.479
167.446
170.777
174.341
178.023
181.713
185.304
188.698
191.8
194.525
196.792
198.522
199.639
200.067
199.734
198.58
196.563
193.672
189.935
185.42
180.234
174.517
168.424
162.116
155.749
149.464
143.384
137.616
132.245
127.341
122.956
119.124
115.856
113.141
110.946
109.208
107.849
106.765
105.859
105.019
104.149
103.167
102.007
100.623
98.9933
97.1142
95.002
92.6876
90.2132
87.6277
84.9834
82.3324
79.72
77.1918
74.7881
72.5389
70.4651
68.5802
66.8916
65.4014
64.1083
63.0077
62.092
61.352
60.7775
60.3577
60.0814
59.9372
59.9128
59.9962
60.1756
60.4394
60.7758
61.1735
61.6212
62.1079
62.6227
63.1547
63.6935
64.2287
64.75
65.2475
65.7113
66.1319
66.5002
66.8071
67.0443
67.2039
67.2783
67.2609
67.1477
66.9342
66.6162
66.1906
65.6554
65.0098
64.2542
63.3902
62.4206
61.3493
60.1816
58.9234
57.5819
56.1648
54.6808
53.1391
51.5491
49.9211
48.2651
46.5917
44.9114
43.2345
41.5717
39.9329
38.3281
36.7666
35.2572
33.8075
32.4243
31.1128
29.8766
28.7179
27.6366
26.6314
25.699
24.835
24.0341
23.2906
22.599
21.9541
21.352
20.7898
20.266
19.7803
19.3331
18.9258
18.5597
18.2364
17.9569
17.7219
17.5309
17.3826
17.2727
2120.9
797.326
566.412
476.339
424.096
387.771
361.022
341.509
327.913
319.096
313.906
311.194
309.867
308.943
307.585
305.12
301.055
295.086
287.103
277.185
265.589
252.725
239.108
225.305
211.873
199.307
187.997
178.211
170.092
163.676
158.915
155.706
153.909
153.369
153.928
155.43
157.73
160.69
164.153
167.939
171.916
175.958
179.938
183.738
187.242
190.355
192.995
195.101
196.629
197.542
197.809
197.395
196.259
194.361
191.667
188.164
183.875
178.862
173.227
167.105
160.651
154.024
147.378
140.852
134.574
128.65
123.175
118.226
113.864
110.13
107.041
104.588
102.731
101.407
100.515
99.9438
99.5758
99.296
98.9965
98.583
97.9802
97.1352
96.0177
94.6203
92.9548
91.0496
88.9453
86.6907
84.3383
81.9397
79.5523
77.2247
74.9967
72.8994
70.9559
69.1824
67.5888
66.1804
64.9578
63.9183
63.0567
62.3656
61.8364
61.4596
61.2247
61.1206
61.136
61.2594
61.4794
61.7838
62.1611
62.5999
63.0886
63.616
64.1706
64.7412
65.317