/*--------------------------------*- C++ -*----------------------------------*\
  =========                 |
  \\      /  F ield         | OpenFOAM: The Open Source CFD Toolbox
   \\    /   O peration     | Website:  https://openfoam.org
    \\  /    A nd           | Version:  9
     \\/     M anipulation  |
\*---------------------------------------------------------------------------*/
FoamFile
{
    format      ascii;
    class       volScalarField;
    location    "0.22";
    object      k;
}
// * * * * * * * * * * * * * * * * * * * * * * * * * * * * * * * * * * * * * //

dimensions      [0 2 -2 0 0 0 0];

internalField   nonuniform List<scalar> 
12225
(
0.265424
0.159128
0.103152
0.076759
0.0664446
0.0639202
0.0644704
0.0656673
0.0664764
0.066731
0.0667359
0.0670034
0.0680751
0.0704445
0.0751463
0.0890553
0.136988
0.262425
0.331586
0.247076
0.195818
0.169115
0.157445
0.154474
0.155821
0.158519
0.160925
0.162544
0.163619
0.164734
0.166526
0.169608
0.175611
0.191014
0.252122
0.516124
0.344302
0.284559
0.240409
0.213541
0.200343
0.196435
0.197703
0.200941
0.20418
0.206704
0.208733
0.211032
0.214495
0.21987
0.228691
0.248707
0.322881
0.652956
0.349911
0.305041
0.267974
0.243119
0.229913
0.225622
0.226797
0.230367
0.234252
0.237549
0.240333
0.243351
0.247697
0.254575
0.266219
0.291994
0.377614
0.73147
0.353423
0.317762
0.286676
0.264681
0.252486
0.24843
0.249721
0.253593
0.258024
0.262017
0.265501
0.269108
0.274011
0.281904
0.296038
0.326948
0.420981
0.766652
0.355801
0.326315
0.300117
0.281113
0.270438
0.267035
0.268628
0.272806
0.277717
0.282363
0.286562
0.290814
0.29627
0.304968
0.321021
0.35555
0.451353
0.77285
0.357506
0.332396
0.310148
0.29396
0.28499
0.282459
0.284463
0.288939
0.294275
0.299548
0.304521
0.309567
0.315752
0.325248
0.342608
0.378869
0.47126
0.760388
0.358773
0.336874
0.317814
0.30415
0.296872
0.295277
0.297715
0.302457
0.308167
0.314056
0.31988
0.325909
0.333082
0.343507
0.361705
0.398011
0.483724
0.735818
0.359733
0.340237
0.323745
0.312274
0.306557
0.305849
0.30868
0.31363
0.319664
0.326166
0.332924
0.340132
0.34858
0.36016
0.378987
0.414189
0.491333
0.703949
0.360469
0.342782
0.328343
0.318726
0.31437
0.314426
0.31756
0.322646
0.328957
0.336075
0.343847
0.352417
0.362421
0.375446
0.394972
0.428607
0.496501
0.669694
0.361035
0.344701
0.33188
0.323783
0.320548
0.321199
0.324519
0.329667
0.336212
0.34395
0.352806
0.362895
0.374708
0.389503
0.410041
0.442306
0.501484
0.638484
0.361433
0.346011
0.334329
0.327331
0.324887
0.325909
0.329287
0.334427
0.34116
0.349467
0.35936
0.370948
0.384613
0.401328
0.423224
0.454874
0.507492
0.616823
0.361746
0.347006
0.336208
0.33007
0.328213
0.32945
0.332791
0.337879
0.344783
0.353657
0.364606
0.377762
0.393443
0.4124
0.436223
0.468229
0.516159
0.603029
0.362016
0.347811
0.337726
0.33228
0.330842
0.33215
0.335359
0.340361
0.347453
0.356957
0.369082
0.384009
0.402033
0.423745
0.450283
0.483866
0.529298
0.599635
0.362229
0.348388
0.338799
0.333811
0.332566
0.333771
0.33676
0.341664
0.34898
0.359165
0.372533
0.389346
0.409946
0.434866
0.464964
0.50164
0.547492
0.60869
0.362372
0.348717
0.339386
0.334584
0.333279
0.334221
0.336951
0.341809
0.349415
0.36031
0.374898
0.393553
0.416727
0.445022
0.479215
0.520261
0.569339
0.628379
0.362424
0.348785
0.339483
0.334597
0.333007
0.333595
0.336123
0.34106
0.349052
0.360649
0.376313
0.396523
0.42186
0.45303
0.490845
0.536098
0.589294
0.650211
0.362349
0.348558
0.339066
0.333836
0.331776
0.331987
0.334419
0.339565
0.347988
0.360171
0.376571
0.397703
0.424171
0.45664
0.495786
0.542204
0.596135
0.656703
0.36209
0.347947
0.337989
0.332069
0.329256
0.328937
0.331195
0.33644
0.345075
0.357454
0.373958
0.395029
0.421139
0.452732
0.490157
0.533556
0.582729
0.636516
0.361705
0.347051
0.336357
0.329381
0.325396
0.324047
0.325502
0.330106
0.338147
0.349874
0.365565
0.385547
0.410174
0.439796
0.474717
0.515082
0.560684
0.610402
0.361321
0.346102
0.334554
0.326383
0.321053
0.318394
0.318633
0.322075
0.328954
0.339454
0.353783
0.372186
0.394946
0.4224
0.454957
0.493025
0.536748
0.58541
0.3609
0.344933
0.332264
0.322603
0.315618
0.311312
0.309962
0.311852
0.317159
0.326021
0.338605
0.355112
0.375788
0.400975
0.431151
0.466916
0.50877
0.556513
0.360391
0.343338
0.329127
0.317578
0.308595
0.302357
0.299197
0.299354
0.302917
0.309965
0.320631
0.335103
0.353621
0.376517
0.404258
0.437476
0.476831
0.522523
0.359702
0.340996
0.324636
0.310689
0.299339
0.29095
0.285906
0.284331
0.286179
0.291427
0.300163
0.312576
0.328929
0.349539
0.374808
0.405263
0.441528
0.483988
0.358702
0.337439
0.318091
0.301144
0.287071
0.276424
0.269559
0.266413
0.266737
0.270344
0.277243
0.287634
0.301816
0.320106
0.342813
0.370305
0.403058
0.44148
0.357209
0.331941
0.308458
0.28784
0.270789
0.257973
0.249534
0.245138
0.244249
0.246464
0.25169
0.260124
0.272111
0.287977
0.307956
0.332255
0.361183
0.395086
0.354945
0.323188
0.29397
0.269045
0.249112
0.234511
0.225008
0.219848
0.218144
0.219263
0.223007
0.229565
0.239312
0.252595
0.269606
0.290444
0.315278
0.34436
0.351376
0.308389
0.271254
0.241832
0.219699
0.204275
0.194575
0.18929
0.187196
0.187501
0.189946
0.194702
0.202148
0.21264
0.226379
0.243426
0.263867
0.287861
0.342575
0.278941
0.232377
0.199885
0.177644
0.163162
0.15441
0.149632
0.147496
0.147212
0.148512
0.151517
0.156549
0.163956
0.173984
0.186742
0.20232
0.220837
0.299382
0.21401
0.158701
0.122538
0.0992089
0.0850061
0.0771453
0.0732787
0.0717231
0.071556
0.072459
0.0744885
0.0778883
0.0829591
0.0899652
0.0990917
0.110502
0.12438
0.362714
0.40594
0.441342
0.458289
0.46195
0.456133
0.443417
0.429795
0.421677
0.417697
0.417866
0.422489
0.430488
0.438005
0.440841
0.438429
0.443866
0.474368
0.516665
0.563118
0.609639
0.654131
0.695597
0.733632
0.768141
0.799191
0.826929
0.851537
0.873209
0.892142
0.908526
0.922543
0.934367
0.944164
0.952098
0.958327
0.963013
0.96632
0.968422
0.969505
0.968663
0.965953
0.961447
0.955192
0.947223
0.937574
0.92628
0.913384
0.898938
0.883002
0.865647
0.846954
0.827016
0.805934
0.783819
0.760793
0.736982
0.712521
0.687547
0.662205
0.636636
0.610986
0.585398
0.56001
0.534958
0.510371
0.486371
0.463072
0.440577
0.41898
0.398364
0.378802
0.360352
0.343065
0.326975
0.312109
0.298478
0.286082
0.274909
0.264935
0.256125
0.248435
0.241817
0.236215
0.231576
0.227844
0.224963
0.222876
0.221526
0.220857
0.220816
0.22136
0.22247
0.224129
0.226205
0.228683
0.231541
0.23475
0.238274
0.242075
0.246107
0.250321
0.254664
0.259079
0.263508
0.267888
0.27216
0.276267
0.280166
0.283829
0.287266
0.290538
0.293547
0.296223
0.298559
0.300548
0.302187
0.303477
0.30442
0.305023
0.305298
0.305258
0.304919
0.3043
0.303423
0.302311
0.300989
0.299482
0.297817
0.296022
0.294123
0.292146
0.290116
0.288056
0.285987
0.283927
0.281891
0.27989
0.277932
0.276021
0.274158
0.27234
0.270559
0.268805
0.267068
0.265332
0.263579
0.261794
0.259956
0.258046
0.256046
0.253937
0.251701
0.249322
0.246783
0.244068
0.241169
0.238111
0.235037
0.23242
0.231272
0.23086
0.230268
0.229406
0.228249
0.226771
0.224946
0.22274
0.220118
0.217041
0.213481
0.209421
0.204861
0.199841
0.201809
0.200772
0.199407
0.194084
0.199941
0.196662
0.553241
0.698315
0.792879
0.841606
0.867588
0.886363
0.908794
0.94136
0.97646
1.02163
1.08313
1.16218
1.24602
1.3058
1.33473
1.3348
1.31656
1.29353
1.27425
1.26164
1.25584
1.25635
1.26256
1.2738
1.28927
1.30809
1.32936
1.35219
1.3758
1.39947
1.42266
1.4449
1.46585
1.48527
1.50297
1.5188
1.53269
1.54455
1.55436
1.56148
1.56646
1.56929
1.56986
1.56807
1.56381
1.55699
1.54755
1.53544
1.52063
1.50313
1.48295
1.46015
1.43482
1.40706
1.37701
1.34482
1.31067
1.27478
1.23736
1.19865
1.15889
1.11834
1.07727
1.03594
0.994613
0.953536
0.912962
0.873126
0.834249
0.796534
0.760167
0.725313
0.692114
0.660693
0.631147
0.603556
0.577977
0.554448
0.532986
0.513593
0.49625
0.480924
0.467566
0.456111
0.446485
0.438604
0.432376
0.427702
0.424481
0.422609
0.421982
0.422505
0.42404
0.426344
0.429457
0.433353
0.43799
0.443312
0.449255
0.455751
0.462722
0.470086
0.477755
0.485638
0.493635
0.501646
0.509566
0.517292
0.524724
0.53177
0.538348
0.544386
0.55002
0.555183
0.55983
0.563931
0.567468
0.570434
0.572828
0.574657
0.575936
0.576682
0.576921
0.576683
0.576001
0.574914
0.573463
0.571693
0.569649
0.567379
0.564931
0.562351
0.559685
0.556976
0.554264
0.551585
0.54897
0.546444
0.544028
0.541736
0.539575
0.537549
0.535652
0.533877
0.532207
0.530624
0.529105
0.527622
0.526146
0.524643
0.52308
0.521422
0.51963
0.51767
0.515503
0.513094
0.510416
0.507458
0.504246
0.500842
0.497252
0.493239
0.488752
0.483794
0.478337
0.472353
0.465816
0.458695
0.450959
0.442583
0.43356
0.423908
0.413666
0.402884
0.392077
0.379543
0.366112
0.351644
0.339064
0.325629
0.607916
0.910266
1.08978
1.17803
1.22992
1.27437
1.32912
1.37993
1.43515
1.49749
1.56269
1.61921
1.65255
1.65394
1.62758
1.5859
1.54312
1.50965
1.48999
1.48421
1.49035
1.50592
1.52843
1.55564
1.58559
1.61668
1.64765
1.67765
1.70613
1.7328
1.75757
1.78045
1.80153
1.82089
1.8386
1.85471
1.86922
1.88209
1.89325
1.90246
1.90973
1.91493
1.91785
1.91832
1.91615
1.91117
1.90326
1.89228
1.87817
1.86086
1.84033
1.81661
1.78974
1.75981
1.72695
1.69132
1.6531
1.61252
1.56982
1.52526
1.47915
1.43178
1.38346
1.33451
1.28526
1.23602
1.18711
1.13883
1.09147
1.04531
1.00058
0.957524
0.916335
0.877186
0.840221
0.805552
0.773264
0.743414
0.716033
0.691128
0.668686
0.648675
0.631048
0.615744
0.602688
0.591799
0.582982
0.576138
0.571156
0.56792
0.566311
0.566216
0.567372
0.569697
0.573118
0.577562
0.582948
0.589191
0.596198
0.603872
0.612107
0.620793
0.629815
0.639056
0.648395
0.65771
0.666882
0.675796
0.684345
0.692436
0.69999
0.706948
0.713309
0.719144
0.724369
0.728933
0.732807
0.735975
0.738431
0.74018
0.741236
0.74162
0.74136
0.740492
0.739058
0.737105
0.734686
0.731854
0.728671
0.725196
0.721491
0.717616
0.713631
0.709592
0.705551
0.701554
0.697643
0.693851
0.690207
0.686729
0.68343
0.680315
0.677383
0.674624
0.672026
0.669567
0.667225
0.66497
0.66277
0.660592
0.658397
0.656149
0.653806
0.65133
0.64868
0.645819
0.642716
0.639353
0.635721
0.631804
0.627532
0.622788
0.617507
0.611656
0.605283
0.598339
0.590782
0.582567
0.573653
0.564009
0.553619
0.542493
0.530659
0.518141
0.504967
0.490726
0.475611
0.459186
0.442633
0.426133
0.68948
1.25432
1.47275
1.57492
1.6314
1.67178
1.69579
1.71664
1.7381
1.75824
1.77148
1.77134
1.75447
1.72374
1.68764
1.65599
1.63601
1.63072
1.63949
1.65963
1.68781
1.72093
1.75642
1.79229
1.82711
1.85997
1.89041
1.91828
1.94371
1.96694
1.9883
2.00811
2.02664
2.04409
2.06058
2.07615
2.09076
2.10429
2.11657
2.12736
2.13651
2.14379
2.14896
2.15176
2.15197
2.14935
2.14373
2.13491
2.12279
2.10724
2.08822
2.06569
2.03968
2.01024
1.97748
1.94152
1.90256
1.86079
1.81645
1.76983
1.72121
1.6709
1.61924
1.56657
1.51323
1.45959
1.40597
1.35274
1.30022
1.24874
1.19858
1.15004
1.10336
1.05877
1.01646
0.976581
0.939263
0.904592
0.872626
0.843391
0.816886
0.793086
0.771949
0.753414
0.73741
0.723853
0.712649
0.703696
0.696882
0.692086
0.689178
0.688029
0.688391
0.69016
0.693238
0.697525
0.702918
0.709312
0.716594
0.724647
0.733347
0.742567
0.752174
0.762036
0.772017
0.781986
0.791811
0.801372
0.810553
0.819254
0.827388
0.834885
0.841687
0.847817
0.853291
0.858036
0.862004
0.865167
0.867511
0.869033
0.869741
0.869655
0.868801
0.867214
0.86494
0.862029
0.858539
0.854532
0.850076
0.845243
0.840104
0.834733
0.829201
0.823577
0.817926
0.812308
0.806774
0.80137
0.796133
0.791091
0.786264
0.781664
0.777293
0.773149
0.76922
0.765491
0.761939
0.75854
0.755262
0.752075
0.748941
0.745824
0.742686
0.739488
0.736189
0.732753
0.729147
0.725341
0.721305
0.716995
0.712344
0.707277
0.701742
0.695696
0.689076
0.681915
0.674159
0.665753
0.656648
0.646797
0.636178
0.624785
0.612627
0.59971
0.586016
0.571394
0.555794
0.538936
0.521132
0.50338
0.85574
1.58412
1.85793
1.97479
2.01082
1.99691
1.96382
1.92682
1.89185
1.85949
1.82834
1.79754
1.76849
1.74482
1.7308
1.72937
1.74105
1.76425
1.79609
1.83338
1.87322
1.91328
1.95185
1.9878
2.02054
2.0499
2.07604
2.09933
2.12028
2.13939
2.15716
2.17399
2.19018
2.20593
2.22132
2.23633
2.25087
2.26477
2.27774
2.28962
2.30019
2.30917
2.31627
2.3212
2.3237
2.32349
2.32035
2.31407
2.30448
2.29143
2.27483
2.25462
2.23078
2.20333
2.17235
2.13793
2.10023
2.05943
2.01575
1.96944
1.92078
1.87006
1.81762
1.76378
1.7089
1.65332
1.59742
1.54154
1.48605
1.43128
1.37758
1.32527
1.27463
1.22595
1.17946
1.13538
1.09388
1.0551
1.01913
0.986028
0.955833
0.928539
0.904116
0.882513
0.863664
0.847485
0.833882
0.82275
0.813975
0.80743
0.802981
0.800484
0.799713
0.800546
0.802868
0.806566
0.811524
0.817623
0.824737
0.832738
0.841488
0.850847
0.860673
0.870819
0.881141
0.891496
0.901744
0.911752
0.921397
0.930567
0.939163
0.947098
0.954303
0.960717
0.966365
0.971242
0.97528
0.978435
0.980678
0.981996
0.982388
0.981864
0.980446
0.978165
0.975062
0.971188
0.9666
0.961366
0.955557
0.949252
0.94253
0.935474
0.92817
0.920697
0.913134
0.905555
0.898027
0.890609
0.883351
0.876295
0.869474
0.862909
0.856616
0.850598
0.844855
0.839377
0.83415
0.829153
0.824363
0.819752
0.815289
0.810942
0.806674
0.802449
0.79823
0.79398
0.789662
0.785242
0.780678
0.775921
0.770914
0.765599
0.759926
0.753848
0.74731
0.74026
0.732644
0.724454
0.715625
0.706098
0.69584
0.684826
0.673045
0.660478
0.647089
0.632784
0.617457
0.600942
0.583286
0.56542
0.987486
1.88693
2.21158
2.31829
2.3081
2.23887
2.14657
2.05331
1.97101
1.90451
1.85473
1.82122
1.80344
1.80082
1.81232
1.83601
1.86922
1.90885
1.95189
1.99574
2.0383
2.07812
2.11429
2.1464
2.17446
2.19878
2.21988
2.23839
2.25496
2.27019
2.2846
2.29859
2.31246
2.32635
2.34031
2.35431
2.36821
2.38182
2.39486
2.40716
2.41848
2.42853
2.43699
2.44356
2.44794
2.44983
2.44899
2.44517
2.43818
2.42784
2.41403
2.39666
2.37568
2.35108
2.3229
2.2912
2.25611
2.21777
2.17637
2.13213
2.08529
2.03613
1.98493
1.93201
1.87769
1.82231
1.76622
1.70975
1.65327
1.59712
1.54166
1.48722
1.43414
1.38271
1.33324
1.28598
1.24116
1.19897
1.15957
1.12306
1.08952
1.05899
1.03145
1.00689
0.985257
0.966467
0.950433
0.937053
0.92621
0.917778
0.91162
0.907577
0.905444
0.90509
0.906391
0.909223
0.913464
0.918986
0.925654
0.933332
0.941875
0.951135
0.960959
0.971193
0.981684
0.992278
1.00283
1.01319
1.02322
1.03281
1.04184
1.05021
1.05783
1.06463
1.07055
1.0756
1.07977
1.08299
1.08523
1.08645
1.08663
1.08579
1.08392
1.08105
1.07722
1.07246
1.06684
1.06042
1.05327
1.04548
1.03711
1.02828
1.01906
1.00955
0.999851
0.990036
0.980194
0.970399
0.96072
0.951215
0.941934
0.932915
0.924188
0.915775
0.907686
0.899927
0.892495
0.885381
0.87857
0.872045
0.865782
0.859754
0.853932
0.848284
0.842775
0.837369
0.83203
0.826717
0.821388
0.815994
0.810483
0.804805
0.798912
0.792752
0.786272
0.779411
0.772112
0.764286
0.75593
0.746978
0.737395
0.727129
0.71615
0.704409
0.691851
0.678384
0.663906
0.648318
0.631764
0.614553
1.083
2.1124
2.45494
2.55112
2.51297
2.40447
2.27018
2.14017
2.03202
1.95294
1.90327
1.87983
1.8783
1.89417
1.92316
1.96126
2.00487
2.05084
2.09664
2.14029
2.18044
2.21629
2.24751
2.27416
2.29663
2.31548
2.33142
2.34515
2.35739
2.36873
2.37969
2.39065
2.40186
2.41346
2.42548
2.43785
2.45043
2.46303
2.4754
2.4874
2.49877
2.50921
2.5184
2.52601
2.53173
2.53525
2.53631
2.53464
2.53003
2.52229
2.51128
2.49687
2.47899
2.45763
2.43277
2.40446
2.37279
2.33788
2.29987
2.25895
2.21532
2.16923
2.12091
2.07065
2.01872
1.96543
1.91108
1.85599
1.80047
1.74487
1.68951
1.63474
1.58087
1.52826
1.47721
1.42802
1.38098
1.33633
1.29428
1.255
1.21862
1.18523
1.15488
1.12757
1.10327
1.08194
1.0635
1.04785
1.03488
1.02448
1.0165
1.01078
1.00713
1.00542
1.00552
1.0073
1.01063
1.01538
1.02142
1.02859
1.03675
1.04575
1.05542
1.06562
1.07616
1.0869
1.09767
1.10833
1.11873
1.12873
1.1382
1.14703
1.15513
1.16239
1.16875
1.17412
1.17853
1.18195
1.18432
1.18559
1.18573
1.18473
1.18259
1.17931
1.17492
1.16945
1.16296
1.15549
1.14712
1.13792
1.12798
1.11739
1.10625
1.09466
1.08271
1.07052
1.05817
1.04576
1.03337
1.02108
1.00896
0.99707
0.985462
0.974174
0.963241
0.952685
0.942522
0.932759
0.923399
0.914437
0.905861
0.897657
0.889803
0.882274
0.875039
0.868066
0.861317
0.854753
0.848328
0.841996
0.835708
0.829416
0.823071
0.816622
0.810013
0.803185
0.796079
0.788621
0.780766
0.77241
0.763585
0.754202
0.74422
0.733561
0.722144
0.709873
0.696652
0.682425
0.667372
0.651582
1.16683
2.2301
2.59038
2.68698
2.63688
2.50986
2.35678
2.21303
2.09911
2.02243
1.98147
1.97026
1.98173
2.00927
2.04728
2.09123
2.13751
2.18335
2.22673
2.26624
2.30107
2.33087
2.3557
2.37594
2.39217
2.4051
2.4155
2.42414
2.4317
2.43878
2.44586
2.45331
2.46134
2.47009
2.47956
2.48969
2.50034
2.51129
2.52238
2.53347
2.54432
2.55462
2.56402
2.57219
2.5788
2.58354
2.58611
2.58625
2.58372
2.57833
2.56992
2.55835
2.54354
2.52545
2.50406
2.47939
2.45152
2.42052
2.38654
2.3497
2.3102
2.26823
2.224
2.17773
2.12967
2.08006
2.02915
1.97722
1.92453
1.87137
1.81802
1.76479
1.71199
1.65993
1.60895
1.55936
1.51147
1.46558
1.42194
1.38079
1.34233
1.3067
1.27401
1.24431
1.21763
1.19394
1.17321
1.15535
1.14028
1.12788
1.11804
1.11057
1.10531
1.10213
1.1009
1.1015
1.10379
1.10764
1.1129
1.11944
1.12709
1.13571
1.14513
1.15518
1.1657
1.17651
1.18747
1.19839
1.20913
1.21955
1.22949
1.23884
1.24748
1.25529
1.2622
1.26811
1.27294
1.27669
1.27936
1.28086
1.28116
1.28021
1.27801
1.27454
1.26982
1.26387
1.25672
1.24842
1.23903
1.22862
1.21727
1.20508
1.19213
1.17854
1.1644
1.14983
1.13494
1.11982
1.10459
1.08934
1.07416
1.05912
1.04431
1.0298
1.01562
1.00185
0.988501
0.975621
0.963229
0.951339
0.939959
0.929088
0.91872
0.908837
0.899419
0.890436
0.881853
0.873631
0.865724
0.858086
0.850667
0.843417
0.836287
0.829225
0.822177
0.815085
0.807893
0.80054
0.79297
0.785117
0.776937
0.768338
0.759325
0.749772
0.739593
0.728671
0.71692
0.704299
0.690988
0.677028
1.22311
2.27955
2.64768
2.74859
2.70004
2.57359
2.42243
2.28359
2.17778
2.11146
2.08154
2.08054
2.10023
2.13336
2.17416
2.21819
2.26219
2.30383
2.34153
2.37434
2.40185
2.42405
2.44125
2.45403
2.46311
2.46928
2.47336
2.47611
2.47822
2.48029
2.48277
2.486
2.49021
2.4955
2.50188
2.50926
2.5175
2.52639
2.53582
2.54571
2.55579
2.56574
2.57518
2.58377
2.59114
2.59695
2.60089
2.60269
2.6021
2.5989
2.59292
2.58404
2.57217
2.55724
2.53925
2.5182
2.49416
2.4672
2.43744
2.40501
2.37007
2.33278
2.29333
2.25191
2.20872
2.16397
2.11784
2.07054
2.02228
1.97326
1.92372
1.87388
1.82401
1.77437
1.72527
1.677
1.62988
1.58423
1.54034
1.49851
1.45898
1.42197
1.38766
1.35615
1.32754
1.30185
1.27909
1.25922
1.24216
1.22784
1.21616
1.20692
1.20001
1.19531
1.19268
1.19201
1.19317
1.19601
1.20041
1.20621
1.21326
1.22141
1.23049
1.24032
1.25075
1.26159
1.27269
1.28385
1.29494
1.30577
1.31622
1.32613
1.33538
1.34384
1.35141
1.35798
1.36346
1.36777
1.3709
1.37282
1.37347
1.3728
1.37078
1.36737
1.36257
1.35639
1.34885
1.33999
1.32985
1.31849
1.30599
1.29242
1.27789
1.2625
1.24634
1.22955
1.21222
1.19447
1.17643
1.1582
1.13989
1.12161
1.10346
1.08551
1.06786
1.05058
1.03374
1.01739
1.00159
0.986379
0.97178
0.957819
0.944504
0.931837
0.919806
0.908391
0.89756
0.887277
0.877494
0.868164
0.859233
0.850649
0.842356
0.834301
0.82643
0.81869
0.811029
0.803396
0.795741
0.788015
0.780166
0.772132
0.763844
0.755189
0.74611
0.736462
0.726169
0.715184
0.703659
0.691581
1.25823
2.28135
2.65086
2.75958
2.72319
2.61169
2.47716
2.35529
2.26534
2.21259
2.19323
2.19957
2.22343
2.25779
2.29718
2.33757
2.37608
2.41081
2.44056
2.46474
2.48323
2.49627
2.50441
2.50835
2.50891
2.50698
2.50341
2.49901
2.49446
2.49038
2.48723
2.48535
2.48497
2.48617
2.48897
2.49327
2.49889
2.5056
2.5134
2.52221
2.53174
2.54162
2.55143
2.56078
2.56925
2.57647
2.5821
2.58582
2.58736
2.58651
2.58307
2.57692
2.56797
2.55615
2.54146
2.52392
2.5036
2.48056
2.45494
2.42686
2.39649
2.36398
2.32953
2.29329
2.25546
2.21619
2.17565
2.13398
2.09132
2.04781
2.00357
1.95877
1.91356
1.86814
1.82274
1.7776
1.73302
1.68928
1.64672
1.60563
1.56631
1.52905
1.49408
1.46158
1.43171
1.40458
1.38022
1.35866
1.33988
1.32381
1.31041
1.29949
1.29097
1.28474
1.2807
1.27872
1.27869
1.28047
1.28393
1.28893
1.29531
1.30291
1.31158
1.32114
1.33142
1.34225
1.35345
1.36484
1.37625
1.38752
1.39849
1.40901
1.41893
1.42811
1.43644
1.4438
1.45007
1.45516
1.45899
1.46152
1.46273
1.46256
1.46094
1.45784
1.45324
1.44712
1.43948
1.43035
1.41976
1.40776
1.39441
1.37978
1.36396
1.34704
1.32914
1.31035
1.29082
1.27064
1.24996
1.22888
1.20755
1.18608
1.16459
1.14319
1.12199
1.10109
1.08059
1.06059
1.04114
1.02233
1.00422
0.986851
0.970255
0.954455
0.939456
0.925249
0.911813
0.899112
0.887102
0.875729
0.864936
0.854663
0.844847
0.835429
0.826351
0.817561
0.80901
0.800657
0.792464
0.784395
0.776409
0.76846
0.760478
0.752375
0.744044
0.735357
0.726275
0.716721
0.706813
0.696497
1.27835
2.25295
2.62038
2.73976
2.72255
2.63494
2.52547
2.42676
2.35591
2.31724
2.30706
2.31827
2.34343
2.37615
2.41148
2.44583
2.47674
2.50265
2.52267
2.53652
2.54431
2.54652
2.54384
2.53715
2.52739
2.51554
2.50253
2.48924
2.47643
2.46473
2.45466
2.44659
2.44076
2.43727
2.43612
2.43721
2.44031
2.44515
2.45178
2.46011
2.46981
2.48042
2.49146
2.50245
2.5129
2.52239
2.53051
2.53689
2.54124
2.5433
2.54287
2.53982
2.53405
2.52551
2.5142
2.50015
2.48344
2.46417
2.44248
2.41851
2.39245
2.36448
2.3348
2.30361
2.27107
2.23738
2.20266
2.16703
2.13059
2.09339
2.0555
2.01697
1.97784
1.9382
1.89818
1.85792
1.81764
1.77758
1.73803
1.69929
1.66168
1.62552
1.59109
1.55866
1.52844
1.50061
1.47529
1.45256
1.43246
1.41497
1.40009
1.38767
1.37766
1.36999
1.36457
1.36131
1.36009
1.36079
1.36328
1.36743
1.37308
1.3801
1.3883
1.39754
1.40763
1.41839
1.42966
1.44125
1.45299
1.46469
1.4762
1.48735
1.49799
1.50797
1.51714
1.52539
1.53257
1.53859
1.54334
1.54672
1.54869
1.54922
1.54825
1.54572
1.54157
1.53579
1.52835
1.51927
1.50855
1.49623
1.48236
1.467
1.45023
1.43213
1.4128
1.39236
1.37092
1.3486
1.32554
1.30188
1.27774
1.25326
1.22858
1.20384
1.17917
1.15469
1.13053
1.1068
1.08363
1.0611
1.03931
1.01833
0.998231
0.979053
0.960826
0.943558
0.927238
0.91184
0.897321
0.883625
0.870689
0.858441
0.846809
0.835722
0.825114
0.814926
0.805109
0.795626
0.786445
0.777546
0.768905
0.760492
0.752259
0.744138
0.736039
0.727863
0.719536
0.710981
0.702311
0.693429
1.28817
2.20684
2.57074
2.70258
2.70818
2.64863
2.56765
2.49407
2.44273
2.41737
2.41489
2.42921
2.45385
2.48321
2.5129
2.53977
2.56168
2.57737
2.58624
2.5882
2.58363
2.57318
2.55776
2.53841
2.51624
2.49238
2.46791
2.44381
2.42095
2.40009
2.38179
2.36649
2.35446
2.34585
2.34063
2.33867
2.33972
2.34342
2.34977
2.35864
2.3696
2.38208
2.39551
2.40932
2.42293
2.43583
2.44753
2.45761
2.46573
2.47158
2.47495
2.47566
2.47362
2.46878
2.46115
2.45076
2.43772
2.42215
2.4042
2.38407
2.36196
2.33809
2.31271
2.28606
2.25835
2.22979
2.20056
2.17079
2.14055
2.10987
2.07876
2.04717
2.01504
1.98233
1.94903
1.91515
1.88079
1.84609
1.81125
1.77654
1.74226
1.70871
1.67623
1.64513
1.61568
1.58814
1.56269
1.53949
1.51865
1.50022
1.48424
1.47061
1.45934
1.45041
1.44376
1.43929
1.43694
1.43658
1.43811
1.4414
1.44632
1.45271
1.46042
1.46928
1.47914
1.48981
1.50112
1.51288
1.52492
1.53706
1.54911
1.56092
1.57231
1.58312
1.59321
1.60243
1.61064
1.61771
1.62352
1.62797
1.63095
1.63239
1.63228
1.63054
1.62711
1.62194
1.615
1.60626
1.59574
1.58344
1.5694
1.55366
1.5363
1.51738
1.497
1.47527
1.45229
1.42818
1.4031
1.37716
1.35052
1.32332
1.29571
1.26786
1.2399
1.21199
1.18428
1.15691
1.13004
1.10378
1.07826
1.0536
1.02988
1.00718
0.985556
0.965042
0.945643
0.927346
0.910114
0.893892
0.878609
0.864185
0.850533
0.837566
0.825204
0.813373
0.802015
0.791087
0.780559
0.770417
0.760652
0.751253
0.7422
0.733457
0.724964
0.71666
0.708481
0.700381
0.692392
0.68442
1.29079
2.15077
2.51063
2.65555
2.6849
2.65405
2.60159
2.55246
2.51951
2.50619
2.51016
2.52644
2.54958
2.57471
2.59798
2.61659
2.6287
2.63324
2.62984
2.61864
2.60021
2.57544
2.54547
2.51157
2.47509
2.43737
2.39969
2.36323
2.32902
2.29792
2.27062
2.24761
2.22921
2.21556
2.20664
2.20227
2.20214
2.20583
2.21308
2.22362
2.2369
2.25227
2.26906
2.2866
2.30424
2.3214
2.33753
2.35213
2.36481
2.37521
2.38307
2.38821
2.39049
2.38985
2.3863
2.37989
2.3707
2.35889
2.34462
2.32812
2.30962
2.2894
2.26775
2.24496
2.22132
2.19712
2.1726
2.14795
2.1233
2.0987
2.07413
2.04949
2.02465
1.99943
1.97368
1.94727
1.92012
1.89222
1.86366
1.8346
1.80526
1.77593
1.74692
1.71857
1.69119
1.66509
1.64055
1.61778
1.59696
1.57824
1.56167
1.54727
1.53511
1.52521
1.51753
1.51205
1.50868
1.50737
1.50799
1.51046
1.51464
1.5204
1.5276
1.53608
1.54568
1.55623
1.56754
1.57945
1.59177
1.60432
1.61691
1.62938
1.64154
1.65323
1.66428
1.67454
1.68386
1.69209
1.69909
1.70474
1.70893
1.71155
1.7125
1.71178
1.7093
1.705
1.69883
1.69074
1.68073
1.66878
1.65492
1.63917
1.62159
1.60224
1.5812
1.55856
1.53443
1.50894
1.48221
1.45438
1.4256
1.39603
1.36583
1.33516
1.3042
1.27311
1.24206
1.21123
1.18078
1.15088
1.12169
1.09335
1.06598
1.0397
1.01459
0.990716
0.968109
0.946773
0.926684
0.907792
0.890024
0.873292
0.857494
0.842525
0.828283
0.814675
0.801622
0.789066
0.776967
0.765306
0.754079
0.743291
0.732945
0.723039
0.713557
0.704479
0.695779
0.687437
0.679459
0.671785
1.28798
2.08898
2.4445
2.60205
2.65412
2.65037
2.6244
2.59765
2.58126
2.57858
2.58802
2.60565
2.6269
2.64759
2.66428
2.67446
2.67648
2.66946
2.65319
2.62802
2.59475
2.55455
2.50885
2.45923
2.40737
2.35491
2.3034
2.25425
2.20867
2.16764
2.13192
2.10203
2.07827
2.06074
2.04935
2.04384
2.04384
2.04883
2.05811
2.07118
2.08736
2.10591
2.12613
2.14732
2.16882
2.19
2.21031
2.22923
2.24632
2.26121
2.27359
2.28323
2.28998
2.29373
2.29446
2.29219
2.28701
2.27903
2.26844
2.25545
2.24032
2.22335
2.20488
2.18525
2.16485
2.14404
2.12318
2.10255
2.0824
2.06286
2.04395
2.0256
2.00763
1.9898
1.9718
1.95335
1.93419
1.91414
1.8931
1.87109
1.84819
1.82462
1.80062
1.77651
1.75262
1.72929
1.70684
1.68556
1.66571
1.6475
1.63103
1.61645
1.60389
1.59341
1.58505
1.57881
1.57465
1.57253
1.57238
1.57411
1.57762
1.58279
1.58949
1.59758
1.60691
1.61731
1.62861
1.64064
1.65322
1.66616
1.67928
1.6924
1.70534
1.71792
1.72997
1.74132
1.7518
1.76127
1.76956
1.77654
1.78208
1.78605
1.78833
1.78883
1.78753
1.78435
1.77921
1.77206
1.76285
1.75158
1.73824
1.72283
1.70541
1.68601
1.6647
1.64157
1.61671
1.59024
1.56229
1.53299
1.50249
1.47095
1.43853
1.40542
1.37179
1.33783
1.30373
1.26968
1.23587
1.20251
1.16977
1.13783
1.10685
1.07699
1.04836
1.02107
0.99517
0.970696
0.947643
0.925974
0.90562
0.886488
0.868465
0.851428
0.835251
0.819816
0.805017
0.790769
0.77701
0.763706
0.750844
0.73843
0.726483
0.715028
0.70409
0.693695
0.683864
0.674616
0.665968
0.657882
1.28047
2.02323
2.37396
2.54288
2.61547
2.63601
2.63356
2.62653
2.62469
2.63134
2.64557
2.66431
2.68378
2.7003
2.71079
2.71293
2.7052
2.68684
2.65778
2.61859
2.57035
2.51457
2.45306
2.38785
2.32101
2.25457
2.19041
2.13018
2.07523
2.02661
1.98505
1.95098
1.92455
1.90571
1.8942
1.88959
1.89135
1.89886
1.91099
1.92687
1.94571
1.96674
1.98927
2.01265
2.03629
2.05965
2.08222
2.10357
2.1233
2.14105
2.15655
2.16953
2.17981
2.18725
2.19176
2.19331
2.1919
2.18761
2.18056
2.17093
2.15896
2.14492
2.12917
2.1121
2.09415
2.07577
2.05742
2.03954
2.0225
2.00659
1.99197
1.97864
1.96647
1.95519
1.94443
1.93377
1.92276
1.91103
1.89829
1.88433
1.8691
1.85263
1.83507
1.81666
1.79771
1.77855
1.7595
1.7409
1.72308
1.70632
1.69081
1.67679
1.66446
1.65395
1.64536
1.63873
1.63408
1.6314
1.63066
1.6318
1.63474
1.63939
1.64565
1.65338
1.66244
1.6727
1.68397
1.69611
1.70892
1.72224
1.73587
1.74963
1.76334
1.77682
1.78988
1.80234
1.81404
1.8248
1.83446
1.84287
1.84987
1.85533
1.85911
1.8611
1.86119
1.85934
1.85547
1.84952
1.84142
1.83112
1.81862
1.80391
1.78701
1.76794
1.74676
1.72355
1.69839
1.67137
1.64263
1.6123
1.58051
1.54744
1.51324
1.47809
1.44219
1.40574
1.36892
1.33197
1.29508
1.25848
1.22238
1.18699
1.15251
1.11912
1.08699
1.05625
1.02701
0.999322
0.973216
0.948675
0.925644
0.904031
0.883719
0.86457
0.846434
0.829167
0.812629
0.796704
0.781297
0.766347
0.751818
0.737705
0.724027
0.710825
0.698152
0.686074
0.674659
0.663971
0.654065
0.644929
1.26713
1.95083
2.29625
2.47545
2.56662
2.609
2.6276
2.63821
2.64946
2.6646
2.68333
2.70332
2.72141
2.73436
2.73934
2.73415
2.71733
2.68822
2.6469
2.59415
2.5314
2.46061
2.3841
2.30444
2.22425
2.146
2.07194
2.00392
1.94335
1.8912
1.84803
1.814
1.78896
1.77253
1.76415
1.76313
1.76872
1.78013
1.79596
1.81488
1.83597
1.85849
1.88179
1.90529
1.92852
1.95109
1.97267
1.99301
2.01188
2.02911
2.04452
2.05795
2.06926
2.07828
2.08486
2.0889
2.09029
2.08898
2.08498
2.07834
2.06921
2.05779
2.04439
2.02938
2.01321
1.9964
1.97951
1.96311
1.94774
1.93387
1.92185
1.91187
1.90393
1.89782
1.89318
1.8895
1.88622
1.88276
1.87863
1.87339
1.86675
1.85856
1.84879
1.83755
1.82503
1.81151
1.79731
1.78277
1.76825
1.75408
1.74054
1.72798
1.71667
1.7068
1.69854
1.692
1.68725
1.68432
1.68324
1.68399
1.68651
1.69076
1.69664
1.70406
1.71289
1.72301
1.73425
1.74648
1.75951
1.77318
1.7873
1.80169
1.81617
1.83054
1.84462
1.85823
1.87118
1.88329
1.89438
1.9043
1.91288
1.91995
1.92538
1.92903
1.93076
1.93047
1.92811
1.9236
1.91686
1.90784
1.89649
1.8828
1.86676
1.84839
1.82772
1.80481
1.77974
1.7526
1.72349
1.69254
1.6599
1.62571
1.59014
1.55337
1.51559
1.477
1.43783
1.39828
1.35859
1.319
1.27975
1.24106
1.20319
1.16634
1.13073
1.09652
1.06387
1.03288
1.00361
0.976074
0.950244
0.92604
0.903345
0.882013
0.861877
0.842763
0.824502
0.806936
0.789935
0.773397
0.757257
0.741484
0.726084
0.711095
0.696587
0.68265
0.669393
0.656925
0.645341
0.634675
1.2507
1.8823
2.22195
2.4085
2.51379
2.57298
2.6079
2.63232
2.654
2.67615
2.69889
2.72043
2.73805
2.74882
2.75006
2.73962
2.71605
2.6787
2.62778
2.5643
2.49003
2.40739
2.31926
2.22879
2.13914
2.05325
1.97364
1.90229
1.84057
1.78925
1.74857
1.71833
1.69799
1.68675
1.6837
1.68784
1.69818
1.71375
1.73315
1.75479
1.77763
1.80085
1.82375
1.84575
1.86641
1.88541
1.90261
1.91797
1.93157
1.94355
1.95407
1.96326
1.97119
1.97785
1.98314
1.9869
1.98893
1.98899
1.98688
1.98247
1.97567
1.96653
1.95518
1.94191
1.9271
1.91127
1.89503
1.87905
1.86402
1.85062
1.83943
1.83087
1.82516
1.82227
1.82192
1.82363
1.82675
1.8306
1.83447
1.83772
1.83981
1.84035
1.83909
1.83594
1.83094
1.82426
1.81615
1.80691
1.79691
1.78648
1.77602
1.76594
1.75657
1.74817
1.74097
1.73514
1.73083
1.72813
1.72709
1.72776