/*--------------------------------*- C++ -*----------------------------------*\
  =========                 |
  \\      /  F ield         | OpenFOAM: The Open Source CFD Toolbox
   \\    /   O peration     | Website:  https://openfoam.org
    \\  /    A nd           | Version:  9
     \\/     M anipulation  |
\*---------------------------------------------------------------------------*/
FoamFile
{
    format      ascii;
    class       volScalarField;
    location    "0.22";
    object      nut;
}
// * * * * * * * * * * * * * * * * * * * * * * * * * * * * * * * * * * * * * //

dimensions      [0 2 -1 0 0 0 0];

internalField   nonuniform List<scalar> 
12225
(
3.03549e-05
1.8192e-05
1.17635e-05
8.70101e-06
7.47855e-06
7.15954e-06
7.20556e-06
7.33505e-06
7.42228e-06
7.44019e-06
7.41911e-06
7.41699e-06
7.49812e-06
7.72314e-06
8.21356e-06
9.75635e-06
1.50724e-05
2.92081e-05
0.000163413
0.00010023
8.10002e-05
7.43725e-05
7.34448e-05
7.47814e-05
7.62232e-05
7.6654e-05
7.56261e-05
7.32378e-05
7.00244e-05
6.67767e-05
6.43425e-05
6.35292e-05
6.54642e-05
7.03219e-05
7.5384e-05
8.25507e-05
0.000341096
0.000218327
0.000176657
0.000160511
0.000156811
0.000158528
0.000160744
0.000160706
0.000157326
0.00015076
0.000142085
0.000132983
0.000125365
0.000121033
0.000121635
0.000125349
0.000117557
0.000115121
0.000504755
0.000346777
0.000282516
0.000254646
0.00024577
0.000245837
0.00024759
0.000246697
0.000241226
0.00023104
0.000217284
0.000202052
0.000188048
0.000178054
0.000173954
0.000171078
0.000148934
0.000138727
0.000629066
0.000468129
0.000388954
0.000350865
0.000336322
0.000333688
0.000334199
0.000332345
0.000325388
0.000312682
0.000295077
0.000274602
0.000254264
0.000237477
0.000226076
0.000212714
0.000177666
0.000157255
0.000714081
0.000572569
0.000489065
0.00044464
0.00042548
0.000420081
0.000419134
0.000416468
0.000408723
0.000394673
0.00037468
0.000350358
0.000324515
0.000300604
0.000280034
0.000253869
0.000205362
0.00017336
0.000768863
0.000656403
0.000578093
0.000532216
0.000510534
0.000503127
0.000501032
0.000497941
0.000490118
0.000475812
0.000454829
0.000428188
0.000398103
0.000367445
0.000336749
0.000296556
0.000233893
0.000189278
0.000802962
0.000720104
0.000653416
0.000610721
0.000589092
0.000580978
0.000578448
0.000575497
0.000568273
0.000554622
0.000533825
0.00050626
0.000473344
0.000436914
0.000396273
0.000342096
0.000265256
0.000206855
0.000823783
0.000766435
0.000714329
0.000678331
0.000659232
0.000651936
0.0006499
0.000647736
0.000641705
0.000629391
0.000609627
0.000582219
0.000547792
0.000507003
0.000457824
0.000391253
0.000301208
0.00022781
0.00083639
0.000798966
0.000761594
0.000734283
0.000719647
0.000714581
0.000713977
0.000713221
0.000708827
0.000698256
0.000679982
0.000653385
0.000618484
0.000574969
0.000519723
0.000444018
0.000343276
0.000254291
0.000844014
0.000821158
0.000796881
0.000778759
0.000769702
0.000767898
0.000769485
0.000770625
0.000768115
0.000759371
0.000742612
0.000716983
0.000682228
0.000637563
0.00057936
0.000499184
0.000392259
0.000289058
0.000848258
0.000834691
0.00082012
0.000809786
0.000806049
0.00080768
0.000811667
0.000814756
0.000813969
0.000806678
0.000790942
0.000765888
0.000731376
0.000686777
0.000628704
0.000549204
0.000442132
0.000329629
0.000850999
0.000844006
0.000837109
0.000833546
0.000834788
0.000839801
0.000846191
0.000851189
0.000851957
0.000845774
0.000830586
0.000805646
0.00077126
0.000727516
0.000672054
0.000598142
0.000498459
0.000384677
0.000852901
0.000850748
0.000850057
0.000852481
0.000858481
0.000866937
0.000875858
0.000882801
0.000884932
0.000879304
0.000863734
0.00083777
0.000802589
0.00075967
0.000708527
0.00064457
0.000560293
0.000456983
0.000854103
0.000855098
0.000858779
0.000865753
0.000875595
0.000886975
0.000898103
0.000906677
0.000909665
0.000903714
0.000886456
0.000857881
0.000820426
0.000777512
0.000731161
0.000679709
0.000617272
0.000538667
0.000854759
0.000857452
0.000863654
0.000873398
0.000885664
0.000898948
0.000911567
0.000921182
0.000924366
0.000917203
0.000897055
0.000864422
0.00082316
0.000778799
0.000735913
0.000695842
0.000655663
0.000609497
0.000855004
0.000858308
0.000865501
0.000876358
0.000889579
0.000903637
0.000916944
0.000927053
0.000930083
0.000921531
0.000898464
0.000861744
0.000816366
0.000769518
0.000727656
0.000694278
0.000669173
0.000648967
0.000854924
0.000858095
0.000865209
0.000875943
0.000888966
0.000902903
0.000916315
0.00092672
0.000929984
0.000921256
0.000897329
0.000859015
0.000811604
0.000762888
0.000720133
0.000687876
0.000667457
0.00065773
0.000854497
0.00085689
0.000862999
0.000872442
0.000884056
0.000896797
0.000909545
0.000920066
0.000924426
0.000917829
0.000896769
0.000861285
0.000815687
0.000767072
0.000722646
0.000687533
0.000664063
0.000652409
0.000853711
0.000854499
0.00085822
0.000864416
0.000872247
0.000881231
0.000890928
0.000899894
0.000905047
0.000902168
0.000887542
0.000859882
0.000821343
0.000776989
0.000733087
0.000695237
0.000667183
0.000650635
0.000852572
0.00085068
0.000850289
0.000851032
0.000852609
0.000855304
0.000859519
0.0008647
0.000868724
0.00086813
0.000859359
0.000840238
0.00081104
0.000774591
0.00073549
0.000698896
0.000669358
0.000650066
0.000850474
0.000843406
0.000835625
0.000827405
0.000819424
0.000813005
0.000809418
0.00080888
0.000809944
0.000809855
0.000805479
0.00079433
0.000775418
0.000749619
0.000719538
0.000688982
0.000662234
0.000643252
0.000846059
0.000828969
0.000808939
0.00078789
0.000767769
0.000750806
0.000738809
0.000732188
0.000729575
0.000728651
0.000726828
0.000721843
0.000712229
0.000697615
0.000678868
0.000658065
0.000638296
0.000623229
0.000836135
0.000800613
0.000762742
0.000726421
0.000693998
0.000667696
0.000649129
0.000637916
0.000632314
0.000630152
0.000629398
0.000628379
0.000625811
0.00062084
0.000613184
0.00060338
0.000592991
0.000584631
0.000813653
0.00074778
0.0006887
0.000638666
0.000597526
0.000566135
0.000544738
0.000531722
0.000524783
0.000521793
0.000521268
0.000522284
0.000524128
0.000526023
0.00052716
0.000527027
0.00052587
0.000525043
0.000764674
0.000657792
0.000581327
0.000524808
0.000482058
0.000451661
0.000431789
0.000419955
0.000413502
0.000410464
0.000409901
0.000411611
0.000415527
0.00042122
0.000427807
0.000434278
0.000440043
0.000445432
0.000666482
0.000522438
0.000442995
0.00039141
0.000355623
0.000331578
0.000316676
0.000308154
0.000303484
0.000301094
0.000300567
0.00030223
0.000306483
0.000313251
0.000321828
0.000331156
0.000340346
0.000349152
0.000495628
0.000349381
0.000287615
0.000251695
0.000228245
0.000213432
0.000204895
0.000200305
0.000197771
0.000196336
0.000195996
0.000197288
0.000200739
0.000206462
0.000214021
0.000222637
0.000231577
0.000240476
0.000262268
0.000172055
0.000139597
0.000121946
0.000111082
0.000104746
0.000101349
9.9556e-05
9.84807e-05
9.78037e-05
9.76587e-05
9.83858e-05
0.00010029
0.000103479
0.000107814
0.000112992
0.000118727
0.000124864
5.94879e-05
4.25303e-05
3.15587e-05
2.43795e-05
1.97127e-05
1.68237e-05
1.51829e-05
1.43453e-05
1.39823e-05
1.3905e-05
1.40412e-05
1.43942e-05
1.5007e-05
1.5935e-05
1.72283e-05
1.89228e-05
2.10499e-05
2.3642e-05
0.000114896
8.11713e-05
8.42921e-05
8.56362e-05
8.57302e-05
8.49249e-05
8.34459e-05
8.18929e-05
8.07972e-05
8.00804e-05
7.97936e-05
8.00091e-05
8.06643e-05
8.13712e-05
8.16899e-05
8.14619e-05
8.15692e-05
8.39612e-05
8.7427e-05
9.11547e-05
9.47663e-05
9.81051e-05
0.00010112
0.000103809
0.000106187
0.000108279
0.00011011
0.000111706
0.000113088
0.000114278
0.000115292
0.000116149
0.000116861
0.000117441
0.000117902
0.000118252
0.000118502
0.000118659
0.000118729
0.0001188
0.000118759
0.000118605
0.000118344
0.000117978
0.00011751
0.000116939
0.000116266
0.000115493
0.000114618
0.000113644
0.000112572
0.000111404
0.000110141
0.000108787
0.000107344
0.000105817
0.000104211
0.00010253
0.00010078
9.89671e-05
9.70981e-05
9.51802e-05
9.32213e-05
9.12294e-05
8.92131e-05
8.71814e-05
8.51435e-05
8.31088e-05
8.10869e-05
7.90877e-05
7.7121e-05
7.51965e-05
7.33242e-05
7.15136e-05
6.97741e-05
6.81147e-05
6.65441e-05
6.50699e-05
6.36991e-05
6.24373e-05
6.12889e-05
6.02567e-05
5.93421e-05
5.85449e-05
5.78637e-05
5.72955e-05
5.68361e-05
5.64798e-05
5.62201e-05
5.60502e-05
5.59634e-05
5.59545e-05
5.60195e-05
5.61632e-05
5.63611e-05
5.66098e-05
5.69048e-05
5.72409e-05
5.76122e-05
5.80124e-05
5.84347e-05
5.88722e-05
5.93177e-05
5.97639e-05
6.02036e-05
6.06298e-05
6.10358e-05
6.14162e-05
6.17668e-05
6.20857e-05
6.23746e-05
6.26406e-05
6.28754e-05
6.3072e-05
6.323e-05
6.33493e-05
6.34299e-05
6.34725e-05
6.34777e-05
6.34466e-05
6.33807e-05
6.32816e-05
6.31512e-05
6.29917e-05
6.28054e-05
6.25947e-05
6.23625e-05
6.21113e-05
6.18441e-05
6.15636e-05
6.12728e-05
6.09743e-05
6.06708e-05
6.03646e-05
6.00579e-05
5.97526e-05
5.94501e-05
5.91516e-05
5.88578e-05
5.85692e-05
5.82856e-05
5.80066e-05
5.77314e-05
5.74589e-05
5.71878e-05
5.69165e-05
5.6643e-05
5.63656e-05
5.60822e-05
5.57908e-05
5.54894e-05
5.51759e-05
5.48485e-05
5.45053e-05
5.41443e-05
5.37636e-05
5.33614e-05
5.29374e-05
5.24961e-05
5.20589e-05
5.17557e-05
5.16231e-05
5.14798e-05
5.13089e-05
5.11062e-05
5.08684e-05
5.05919e-05
5.02726e-05
4.99057e-05
4.94861e-05
4.90091e-05
4.84713e-05
4.78707e-05
4.72188e-05
0.0002116
0.000208908
0.000205789
4.51426e-05
0.000202305
4.53516e-05
0.00017267
0.000215225
0.000285148
0.000339303
0.000376137
0.000398241
0.000408877
0.000408497
0.000396455
0.000382551
0.000372097
0.000366488
0.000364947
0.000365311
0.000364063
0.000360709
0.000356516
0.000353704
0.000354131
0.000358407
0.000366494
0.000378193
0.00039327
0.000411444
0.000432366
0.00045562
0.000480735
0.000507211
0.000534541
0.000562248
0.000589896
0.000617099
0.000643521
0.000668868
0.000692876
0.000715294
0.000735878
0.000754388
0.000770617
0.000783512
0.00079543
0.00080666
0.000817193
0.000826982
0.000835972
0.000844109
0.000851341
0.000857616
0.00086289
0.00086712
0.000870271
0.000872314
0.000873227
0.000872996
0.000871615
0.000869084
0.000865412
0.000860614
0.000854714
0.000847737
0.000839717
0.000830689
0.000820693
0.000809766
0.00079795
0.000785284
0.000771804
0.000757544
0.000742539
0.000726817
0.000710411
0.000693355
0.000675692
0.000657478
0.000638792
0.000619739
0.000600461
0.000581131
0.000561959
0.000543177
0.000525031
0.000507758
0.000491573
0.000476655
0.000463134
0.000451089
0.00044055
0.000431501
0.000423893
0.000417649
0.000412676
0.000408872
0.000406027
0.000403726
0.000402315
0.000401832
0.000402245
0.000403504
0.000405547
0.000408309
0.000411718
0.000415697
0.000420169
0.000425051
0.000430252
0.000435673
0.000441202
0.000446711
0.000452053
0.000457049
0.000461485
0.000465096
0.0004684
0.000471421
0.000474109
0.000476428
0.000478355
0.000479878
0.000480991
0.000481694
0.000481995
0.000481905
0.000481444
0.000480633
0.000479499
0.000478075
0.000476395
0.000474497
0.000472421
0.00047021
0.000467905
0.000465547
0.000463178
0.000460835
0.000458553
0.000456364
0.000454295
0.000452367
0.000450597
0.000448997
0.000447574
0.00044633
0.00044526
0.000444357
0.00044361
0.000443005
0.000442524
0.000442147
0.000441852
0.000441616
0.000441415
0.000441223
0.000441011
0.000440747
0.000440389
0.000439879
0.000439119
0.000437944
0.00043609
0.000433212
0.00042929
0.000424896
0.000420251
0.000415406
0.00041035
0.00040507
0.000399544
0.000393754
0.000387675
0.000381289
0.000374584
0.000367559
0.000360224
0.000352761
0.000361625
0.000353033
0.000341471
0.000312732
0.000315435
0.000290284
4.20052e-05
0.000211995
0.000380837
0.000488456
0.000551415
0.000581495
0.000587061
0.000574987
0.00055722
0.000541613
0.000531614
0.000526912
0.000525438
0.00052548
0.00052675
0.000530795
0.000539896
0.00055605
0.000580392
0.000613061
0.000653486
0.000700627
0.000753123
0.000809416
0.000867895
0.00092704
0.000985542
0.00104237
0.00109681
0.0011484
0.00119691
0.00124229
0.00128457
0.00132383
0.0013602
0.00139379
0.00142468
0.00145297
0.00147873
0.00150229
0.00152455
0.00154567
0.00156559
0.00158425
0.00160154
0.00161735
0.00163159
0.00164416
0.00165496
0.00166394
0.001671
0.00167611
0.00167922
0.0016803
0.00167934
0.00167635
0.00167133
0.00166432
0.00165537
0.00164452
0.00163184
0.00161739
0.00160125
0.00158348
0.00156416
0.00154335
0.0015211
0.00149747
0.00147248
0.00144617
0.00141854
0.00138961
0.00135939
0.00132792
0.00129525
0.00126147
0.00122675
0.00119131
0.00115545
0.00111953
0.001084
0.00104932
0.00101596
0.00098438
0.000954982
0.000928086
0.000903926
0.00088264
0.000864274
0.0008488
0.000836132
0.000826165
0.000818355
0.000812776
0.000809429
0.000808224
0.000809032
0.000811702
0.000816071
0.000821966
0.000829202
0.000837588
0.000846922
0.000856995
0.000867587
0.000878467
0.000889392
0.000900109
0.00091036
0.000919893
0.00092848
0.00093596
0.000942456
0.000948367
0.000953507
0.000957765
0.000961068
0.000963374
0.000964658
0.000964915
0.000964156
0.000962407
0.000959709
0.000956115
0.000951693
0.000946519
0.000940682
0.000934277
0.000927406
0.000920175
0.000912691
0.000905061
0.000897386
0.000889763
0.000882279
0.000875012
0.000868028
0.000861379
0.000855105
0.000849231
0.000843772
0.000838727
0.000834087
0.00082983
0.000825928
0.000822345
0.00081904
0.000815966
0.000813075
0.000810317
0.000807638
0.000804985
0.000802298
0.00079951
0.00079654
0.00079328
0.000789583
0.000785261
0.000780123
0.000774066
0.000767245
0.000759942
0.000752216
0.00074407
0.000735586
0.000726733
0.000717471
0.000707753
0.00069753
0.000686751
0.000675377
0.000663379
0.000650734
0.00063745
0.000625509
0.000610784
0.000593796
0.000572246
0.000552681
0.000530485
4.8145e-05
0.000306511
0.000510836
0.000631214
0.000690937
0.000710482
0.000704311
0.000687232
0.000669069
0.000655084
0.000647141
0.000645303
0.000649416
0.000660098
0.000678785
0.000707197
0.000746522
0.000796944
0.000857587
0.0009267
0.00100198
0.00108088
0.00116094
0.00124
0.00131639
0.00138893
0.00145693
0.00152012
0.00157853
0.00163242
0.00168215
0.00172813
0.00177078
0.00181048
0.00184754
0.00188223
0.00191475
0.00194524
0.00197377
0.00200077
0.00202658
0.00205123
0.00207465
0.00209671
0.00211727
0.00213621
0.00215338
0.00216866
0.00218192
0.00219305
0.00220196
0.00220857
0.00221281
0.00221466
0.00221407
0.00221107
0.00220566
0.00219789
0.00218782
0.00217554
0.00216113
0.00214469
0.00212635
0.00210622
0.00208441
0.00206103
0.00203619
0.00200997
0.00198245
0.00195368
0.00192368
0.00189245
0.00185999
0.00182628
0.0017913
0.00175504
0.00171753
0.00167887
0.00163921
0.00159881
0.00155802
0.00151726
0.00147705
0.00143793
0.00140048
0.00136522
0.00133264
0.00130313
0.00127698
0.00125437
0.00123538
0.00122002
0.00120793
0.00119917
0.00119366
0.00119126
0.0011918
0.00119507
0.00120082
0.00120879
0.00121872
0.0012303
0.00124324
0.00125721
0.00127189
0.00128695
0.00130206
0.00131687
0.00133108
0.0013444
0.00135658
0.00136745
0.00137691
0.00138512
0.00139224
0.00139804
0.00140238
0.00140519
0.00140641
0.001406
0.00140398
0.00140037
0.00139521
0.00138858
0.00138058
0.00137131
0.0013609
0.0013495
0.00133726
0.00132434
0.00131091
0.00129714
0.00128319
0.00126923
0.00125539
0.00124181
0.0012286
0.00121586
0.00120365
0.00119204
0.00118104
0.00117067
0.00116093
0.00115179
0.00114321
0.00113515
0.00112755
0.00112034
0.00111346
0.00110683
0.00110039
0.00109405
0.00108774
0.00108136
0.00107481
0.00106798
0.00106071
0.00105286
0.00104434
0.00103516
0.00102541
0.00101522
0.00100459
0.00099353
0.000981975
0.000970024
0.000957638
0.000944769
0.000931361
0.000917349
0.000902684
0.000887322
0.000871217
0.000854297
0.000836673
0.000817707
0.000796801
0.000773106
0.000747201
0.000720928
5.35569e-05
0.00037259
0.000615688
0.000750429
0.000811378
0.000824466
0.000812321
0.000791362
0.000772111
0.000760135
0.000757918
0.000766668
0.000787398
0.000821123
0.000868454
0.000929082
0.00100154
0.00108339
0.00117163
0.00126311
0.0013549
0.00144452
0.0015301
0.00161037
0.00168466
0.00175277
0.00181488
0.00187141
0.00192293
0.00197008
0.00201351
0.00205379
0.00209145
0.00212691
0.00216052
0.00219252
0.00222309
0.00225233
0.00228017
0.00230712
0.00233328
0.0023586
0.00238297
0.00240623
0.00242822
0.00244876
0.00246769
0.00248482
0.00250002
0.00251312
0.002524
0.00253254
0.00253865
0.00254226
0.00254333
0.00254185
0.00253782
0.00253129
0.00252233
0.00251103
0.00249751
0.00248191
0.00246437
0.00244506
0.00242414
0.00240178
0.00237813
0.00235335
0.00232756
0.00230085
0.00227331
0.00224497
0.00221584
0.00218589
0.00215505
0.00212325
0.00209041
0.00205644
0.00202134
0.00198513
0.00194794
0.00191001
0.00187167
0.00183337
0.00179565
0.00175909
0.00172429
0.00169183
0.00166222
0.0016359
0.00161317
0.00159425
0.00157906
0.00156769
0.00156016
0.00155636
0.00155614
0.00155928
0.00156551
0.00157454
0.00158604
0.00159965
0.00161499
0.00163166
0.00164928
0.00166744
0.00168573
0.00170377
0.0017212
0.00173769
0.00175295
0.00176676
0.00177895
0.00178935
0.00179812
0.00180529
0.00181065
0.00181404
0.00181537
0.00181459
0.00181168
0.00180664
0.00179951
0.00179038
0.00177934
0.0017665
0.00175203
0.00173609
0.00171886
0.00170055
0.00168137
0.00166154
0.00164127
0.00162077
0.00160024
0.00157987
0.00155983
0.00154025
0.00152125
0.00150293
0.00148535
0.00146854
0.00145252
0.00143728
0.00142279
0.00140901
0.00139587
0.00138333
0.00137128
0.00135967
0.00134839
0.00133737
0.0013265
0.00131569
0.00130483
0.00129379
0.00128245
0.00127071
0.0012585
0.00124585
0.00123279
0.00121937
0.00120559
0.00119144
0.00117688
0.00116191
0.00114651
0.00113073
0.00111451
0.00109779
0.00108053
0.00106266
0.00104415
0.00102489
0.00100474
0.000983419
0.000960418
0.000935185
0.000907293
0.000879038
5.73692e-05
0.000426982
0.000702217
0.000850715
0.000916005
0.000930442
0.000918408
0.000898344
0.00088276
0.000878834
0.000890047
0.00091784
0.000962492
0.00102324
0.00109814
0.00118416
0.00127763
0.00137477
0.00147214
0.00156694
0.00165706
0.00174109
0.00181825
0.00188828
0.00195136
0.00200795
0.00205869
0.00210436
0.00214574
0.0021836
0.00221864
0.00225147
0.0022826
0.00231242
0.00234123
0.00236923
0.00239655
0.00242322
0.00244925
0.00247501
0.00250052
0.00252569
0.00255039
0.00257442
0.0025976
0.00261971
0.00264055
0.00265992
0.00267761
0.00269344
0.00270721
0.00271878
0.002728
0.00273477
0.00273901
0.00274066
0.00273972
0.00273622
0.00273021
0.00272179
0.00271109
0.00269827
0.0026835
0.00266698
0.00264892
0.00262954
0.00260904
0.00258764
0.00256551
0.00254283
0.00251973
0.00249631
0.00247262
0.00244868
0.00242443
0.00239979
0.00237462
0.00234877
0.00232208
0.00229439
0.00226562
0.00223575
0.00220487
0.00217322
0.00214112
0.00210904
0.00207753
0.00204721
0.00201869
0.00199257
0.00196936
0.00194946
0.00193309
0.0019205
0.00191183
0.00190711
0.00190625
0.00190911
0.00191544
0.00192497
0.00193735
0.00195221
0.00196912
0.00198767
0.0020074
0.00202787
0.00204863
0.00206926
0.00208935
0.00210853
0.00212647
0.00214291
0.00215758
0.00217028
0.00218084
0.00218937
0.00219586
0.00220009
0.00220193
0.00220128
0.00219809
0.00219234
0.00218405
0.00217329
0.00216012
0.00214469
0.00212712
0.0021076
0.00208632
0.00206349
0.00203936
0.00201415
0.00198813
0.00196154
0.00193461
0.00190758
0.00188066
0.00185405
0.0018279
0.00180236
0.00177753
0.00175349
0.0017303
0.00170797
0.00168651
0.0016659
0.0016461
0.00162705
0.0016087
0.00159096
0.00157376
0.001557
0.00154059
0.00152443
0.0015084
0.0014924
0.00147631
0.00146004
0.00144355
0.00142682
0.00140986
0.00139267
0.00137524
0.00135756
0.00133962
0.0013214
0.0013029
0.00128405
0.00126494
0.00124552
0.00122579
0.00120568
0.00118514
0.00116408
0.00114232
0.00111959
0.00109551
0.00106964
0.00104176
0.00101279
5.9973e-05
0.000463852
0.000762804
0.00092729
0.00100426
0.00102788
0.00102409
0.001013
0.00100887
0.0010201
0.00105031
0.00109985
0.0011669
0.00124821
0.00133959
0.0014366
0.00153511
0.00163168
0.00172375
0.00180957
0.0018881
0.00195892
0.00202207
0.00207791
0.00212708
0.00217037
0.00220865
0.00224279
0.00227365
0.00230201
0.00232853
0.00235381
0.00237829
0.00240231
0.00242612
0.00244988
0.00247367
0.00249748
0.00252141
0.0025457
0.00257035
0.00259526
0.00262025
0.00264513
0.00266968
0.00269367
0.00271687
0.00273902
0.0027599
0.00277926
0.00279687
0.00281251
0.002826
0.00283716
0.00284586
0.00285201
0.00285555
0.00285648
0.00285482
0.00285066
0.00284413
0.00283539
0.00282464
0.00281211
0.00279803
0.00278267
0.0027663
0.00274916
0.0027315
0.00271356
0.00269552
0.00267756
0.0026598
0.00264231
0.0026251
0.00260813
0.00259128
0.00257439
0.00255723
0.00253957
0.00252115
0.00250176
0.00248127
0.00245964
0.00243694
0.00241343
0.00238945
0.00236551
0.00234217
0.00232007
0.00229983
0.00228193
0.00226687
0.00225508
0.00224685
0.00224235
0.00224165
0.00224469
0.00225132
0.00226132
0.00227439
0.00229016
0.00230823
0.00232816
0.0023495
0.00237178
0.00239452
0.00241728
0.00243962
0.00246115
0.00248149
0.00250032
0.00251735
0.00253232
0.002545
0.0025552
0.00256301
0.0025684
0.00257119
0.00257123
0.00256843
0.00256276
0.00255419
0.00254277
0.00252855
0.00251163
0.00249215
0.00247026
0.00244614
0.00242002
0.00239212
0.00236268
0.00233197
0.00230024
0.00226776
0.00223478
0.00220154
0.00216829
0.00213521
0.0021025
0.0020703
0.00203875
0.00200794
0.00197794
0.0019488
0.00192054
0.00189315
0.00186663
0.00184094
0.00181603
0.00179184
0.00176831
0.00174534
0.00172285
0.00170073
0.00167889
0.00165722
0.00163564
0.00161408
0.00159252
0.00157091
0.00154925
0.00152751
0.00150567
0.00148373
0.00146168
0.00143954
0.00141727
0.00139492
0.00137237
0.00134984
0.00132721
0.00130449
0.00128156
0.00125827
0.00123437
0.00120951
0.00118336
0.00115578
0.00112716
6.21698e-05
0.000479606
0.00080042
0.000983407
0.00107685
0.00111628
0.00112851
0.00113426
0.00114822
0.00117867
0.00122826
0.00129564
0.00137707
0.00146778
0.0015629
0.00165817
0.00175022
0.00183663
0.00191592
0.00198727
0.00205047
0.0021057
0.00215348
0.00219454
0.00222972
0.00225996
0.0022862
0.00230935
0.00233024
0.00234962
0.00236811
0.00238622
0.00240435
0.0024228
0.00244176
0.00246136
0.00248163
0.00250256
0.00252429
0.00254702
0.00257073
0.0025953
0.00262055
0.0026463
0.00267231
0.00269834
0.00272414
0.00274944
0.00277396
0.00279743
0.00281955
0.00284006
0.0028587
0.00287523
0.00288944
0.00290117
0.0029103
0.00291676
0.00292054
0.00292169
0.00292032
0.00291659
0.00291071
0.00290292
0.00289351
0.00288276
0.002871
0.00285852
0.00284563
0.00283262
0.00281974
0.00280722
0.00279526
0.00278399
0.0027735
0.00276381
0.00275487
0.00274655
0.00273867
0.00273094
0.00272308
0.00271474
0.00270562
0.00269546
0.00268411
0.00267155
0.00265787
0.00264336
0.00262843
0.0026136
0.00259947
0.00258655
0.00257549
0.00256685
0.00256107
0.00255845
0.00255922
0.00256344
0.00257108
0.00258201
0.00259602
0.00261279
0.00263196
0.00265314
0.00267587
0.00269969
0.00272414
0.00274876
0.0027731
0.00279673
0.00281926
0.00284034
0.00285964
0.00287686
0.00289175
0.00290407
0.00291363
0.00292047
0.00292461
0.00292585
0.00292407
0.00291919
0.00291117
0.00290001
0.00288574
0.00286844
0.00284821
0.00282519
0.00279953
0.00277143
0.00274111
0.00270878
0.0026747
0.00263913
0.00260232
0.00256453
0.00252603
0.00248705
0.00244784
0.00240859
0.0023695
0.00233073
0.00229244
0.00225474
0.00221773
0.00218148
0.00214605
0.00211146
0.00207775
0.0020449
0.0020129
0.00198172
0.00195131
0.00192161
0.00189253
0.00186401
0.00183593
0.00180822
0.00178081
0.00175363
0.00172662
0.00169974
0.00167294
0.00164621
0.00161953
0.00159292
0.00156637
0.00153991
0.00151358
0.00148737
0.00146135
0.00143546
0.00140992
0.00138457
0.0013593
0.00133387
0.00130799
0.00128137
0.00125392
0.00122592
6.36679e-05
0.000483915
0.000821516
0.00102305
0.00113587
0.00119582
0.00122959
0.00125725
0.00129236
0.00134185
0.00140691
0.00148496
0.00157152
0.00166178
0.00175149
0.0018373
0.00191691
0.00198891
0.00205263
0.00210792
0.00215506
0.00219463
0.0022274
0.00225428
0.00227624
0.00229426
0.00230929
0.00232223
0.00233386
0.00234487
0.00235583
0.00236719
0.00237929
0.00239239
0.00240665
0.00242215
0.00243891
0.00245691
0.00247633
0.00249733
0.00251989
0.00254389
0.00256919
0.00259558
0.00262286
0.0026508
0.00267913
0.00270759
0.00273587
0.00276367
0.00279066
0.00281652
0.00284091
0.00286351
0.00288404
0.00290223
0.00291787
0.00293082
0.00294099
0.00294836
0.00295301
0.00295506
0.00295472
0.00295226
0.00294797
0.00294221
0.00293532
0.00292768
0.00291965
0.00291156
0.00290374
0.00289648
0.00289001
0.00288455
0.00288024
0.00287719
0.00287542
0.00287486
0.0028754
0.00287681
0.00287878
0.00288097
0.00288298
0.00288441
0.00288493
0.00288428
0.00288232
0.00287906
0.00287468
0.00286952
0.00286404
0.00285869
0.00285415
0.00285102
0.00284983
0.002851
0.00285487
0.00286163
0.00287138
0.0028841
0.00289968
0.0029179
0.00293846
0.00296103
0.0029852
0.00301055
0.00303663
0.00306298
0.00308918
0.00311478
0.00313939
0.00316263
0.00318415
0.00320363
0.00322079
0.00323537
0.00324714
0.00325592
0.00326173
0.00326458
0.00326431
0.00326082
0.00325403
0.0032439
0.00323045
0.00321371
0.00319376
0.00317071
0.00314468
0.00311583
0.00308436
0.00305047
0.00301438
0.00297632
0.00293654
0.00289529
0.00285282
0.00280936
0.00276517
0.00272045
0.00267542
0.00263028
0.0025852
0.00254035
0.00249586
0.00245186
0.00240846
0.00236576
0.00232383
0.00228273
0.00224252
0.00220321
0.00216481
0.00212731
0.00209066
0.00205482
0.0020197
0.00198523
0.00195133
0.0019179
0.00188486
0.00185214
0.00181966
0.00178738
0.00175528
0.00172334
0.0016916
0.00166008
0.00162885
0.00159797
0.00156753
0.0015376
0.00150824
0.00147944
0.00145128
0.00142348
0.00139586
0.00136811
0.00134018
0.00131215
6.46071e-05
0.00048052
0.000830764
0.0010503
0.001184
0.00126697
0.00132484
0.0013759
0.00143156
0.00149685
0.00157185
0.00165368
0.00173833
0.0018219
0.00190122
0.00197405
0.00203899
0.00209538
0.00214312
0.0021825
0.00221412
0.00223879
0.00225743
0.00227106
0.0022807
0.00228735
0.00229194
0.00229532
0.00229825
0.00230134
0.00230512
0.00230998
0.00231624
0.0023241
0.00233369
0.00234509
0.00235828
0.00237322
0.00239013
0.00240914
0.00243022
0.00245329
0.00247821
0.00250481
0.00253291
0.00256229
0.00259274
0.00262398
0.00265575
0.00268771
0.00271953
0.00275083
0.00278123
0.00281033
0.00283774
0.0028631
0.00288607
0.00290638
0.00292384
0.00293834
0.00294985
0.00295847
0.00296436
0.00296778
0.00296906
0.00296859
0.00296678
0.00296406
0.00296086
0.00295761
0.00295467
0.0029524
0.0029511
0.00295103
0.0029524
0.00295536
0.00296
0.00296635
0.00297434
0.00298383
0.00299458
0.00300627
0.00301849
0.00303081
0.00304276
0.00305393
0.00306397
0.00307268
0.00307997
0.00308594
0.00309085
0.00309503
0.00309908
0.00310356
0.00310899
0.00311587
0.00312458
0.00313543
0.00314863
0.00316427
0.00318234
0.00320273
0.00322524
0.00324961
0.00327551
0.00330256
0.00333037
0.00335851
0.00338656
0.00341411
0.00344076
0.00346612
0.00348985
0.0035116
0.00353108
0.00354801
0.00356216
0.00357331
0.00358127
0.00358604
0.00358767
0.00358601
0.00358096
0.00357246
0.00356049
0.00354505
0.00352618
0.00350397
0.00347852
0.00344995
0.00341841
0.00338409
0.00334716
0.00330785
0.00326637
0.00322294
0.00317779
0.00313116
0.00308326
0.00303432
0.00298456
0.00293417
0.00288335
0.0028323
0.00278117
0.00273015
0.00267939
0.00262905
0.00257925
0.00253014
0.00248182
0.00243439
0.00238792
0.00234246
0.00229803
0.00225462
0.00221219
0.00217067
0.00212997
0.00209
0.00205064
0.00201177
0.00197328
0.0019351
0.00189714
0.00185939
0.00182184
0.00178455
0.00174759
0.00171107
0.00167513
0.00163994
0.00160563
0.0015723
0.00153999
0.00150856
0.00147803
0.00144806
0.00141864
0.00138964
6.51592e-05
0.000472313
0.000832016
0.00106866
0.00122346
0.00132991
0.00141173
0.00148478
0.001558
0.00163476
0.00171467
0.00179539
0.001874
0.00194783
0.00201483
0.00207368
0.00212371
0.00216479
0.0021972
0.00222154
0.0022386
0.00224936
0.00225483
0.0022561
0.00225421
0.00225016
0.00224487
0.00223916
0.00223373
0.00222916
0.00222594
0.00222442
0.00222489
0.00222753
0.00223245
0.00223969
0.00224924
0.00226104
0.00227525
0.002292
0.00231126
0.00233296
0.00235698
0.00238318
0.00241142
0.00244153
0.00247333
0.00250662
0.00254116
0.00257665
0.00261278
0.00264917
0.0026854
0.002721
0.00275552
0.00278846
0.00281935
0.00284779
0.00287341
0.00289596
0.00291529
0.00293138
0.00294431
0.00295431
0.00296171
0.00296691
0.00297039
0.00297268
0.00297428
0.0029757
0.00297742
0.00297986
0.00298338
0.0029883
0.00299487
0.00300329
0.0030137
0.00302618
0.00304075
0.00305733
0.00307575
0.00309577
0.00311703
0.0031391
0.00316149
0.00318371
0.00320528
0.0032258
0.00324498
0.00326267
0.00327891
0.00329387
0.00330798
0.00332169
0.00333547
0.00334976
0.00336498
0.00338148
0.00339955
0.00341937
0.00344103
0.00346452
0.00348976
0.00351655
0.00354466
0.00357379
0.00360359
0.00363369
0.00366373
0.0036933
0.00372203
0.00374954
0.0037755
0.00379955
0.0038214
0.00384076
0.00385739
0.00387105
0.00388154
0.00388871
0.00389249
0.00389298
0.00389004
0.00388359
0.00387356
0.00385995
0.00384277
0.00382205
0.00379788
0.00377034
0.00373956
0.00370568
0.00366886
0.00362927
0.00358711
0.00354257
0.00349586
0.00344718
0.00339675
0.00334476
0.00329143
0.00323696
0.00318154
0.00312538
0.00306868
0.00301163
0.00295443
0.00289727
0.00284036
0.00278387
0.00272799
0.0026729
0.00261874
0.00256562
0.00251365
0.00246286
0.00241327
0.00236484
0.0023175
0.00227113
0.0022256
0.00218074
0.0021364
0.00209242
0.00204869
0.0020051
0.00196163
0.00191828
0.00187513
0.00183232
0.00179004
0.00174853
0.00170805
0.00166883
0.00163101
0.00159466
0.00155976
0.0015261
0.00149381
0.00146256
6.54501e-05
0.000461281
0.000827968
0.00108049
0.00125552
0.00138423
0.00148793
0.00157985
0.00166679
0.00175102
0.00183226
0.00190909
0.00197981
0.00204296
0.00209746
0.00214272
0.0021786
0.00220535
0.00222353
0.00223394
0.00223754
0.00223538
0.00222859
0.00221828
0.00220552
0.00219132
0.00217658
0.0021621
0.00214856
0.00213653
0.00212645
0.00211867
0.00211344
0.00211093
0.00211124
0.00211439
0.00212036
0.00212905
0.00214054
0.00215488
0.00217207
0.00219199
0.00221456
0.00223967
0.00226722
0.00229709
0.00232919
0.00236339
0.00239952
0.00243739
0.00247673
0.00251722
0.00255847
0.0026
0.00264127
0.00268172
0.00272075
0.00275776
0.00279223
0.00282369
0.00285181
0.00287638
0.00289736
0.00291485
0.00292913
0.0029406
0.00294978
0.00295726
0.00296367
0.00296964