/*--------------------------------*- C++ -*----------------------------------*\
  =========                 |
  \\      /  F ield         | OpenFOAM: The Open Source CFD Toolbox
   \\    /   O peration     | Website:  https://openfoam.org
    \\  /    A nd           | Version:  9
     \\/     M anipulation  |
\*---------------------------------------------------------------------------*/
FoamFile
{
    format      ascii;
    class       volScalarField;
    location    "0.22";
    object      p;
}
// * * * * * * * * * * * * * * * * * * * * * * * * * * * * * * * * * * * * * //

dimensions      [0 2 -2 0 0 0 0];

internalField   nonuniform List<scalar> 
12225
(
0.395557
0.0475568
-0.0296318
-0.0180169
0.0051745
0.0431769
0.0981434
0.16611
0.243506
0.327695
0.41592
0.504603
0.589314
0.665193
0.729382
0.776464
0.803022
0.730882
-0.101104
-0.036621
-0.027412
-0.0121641
0.0103954
0.0467168
0.0999775
0.167022
0.244519
0.329819
0.419976
0.511046
0.598069
0.675413
0.739672
0.783373
0.809526
0.764556
-0.0653199
-0.0136639
-0.017833
-0.00602364
0.0159667
0.0504383
0.101376
0.166847
0.243958
0.330079
0.422154
0.516082
0.606703
0.687914
0.755809
0.802174
0.84408
0.817974
-0.0352937
-0.00910636
-0.0150271
-0.00264738
0.0192301
0.0521844
0.100887
0.164494
0.240637
0.32684
0.420139
0.516637
0.611483
0.698773
0.774761
0.83304
0.899729
0.889651
-0.0371815
-0.0184427
-0.0172629
-0.0026227
0.0193739
0.0512901
0.0981324
0.159902
0.234744
0.320427
0.414262
0.51282
0.611949
0.70651
0.793457
0.868792
0.961508
0.975846
-0.0468948
-0.0297075
-0.0221805
-0.00576636
0.0164349
0.0476979
0.0930348
0.153083
0.226455
0.311214
0.405038
0.505113
0.608181
0.710206
0.809065
0.902939
1.01888
1.06482
-0.0560154
-0.0408917
-0.0296358
-0.0120422
0.0104357
0.041316
0.0854293
0.14387
0.215663
0.299186
0.39252
0.493498
0.599795
0.708572
0.818637
0.929766
1.06422
1.14243
-0.0655944
-0.0532142
-0.0399212
-0.0214975
0.00128839
0.0319649
0.0750672
0.131985
0.202099
0.284101
0.376475
0.477653
0.586138
0.700187
0.819388
0.944512
1.09195
1.19775
-0.0771434
-0.0673861
-0.0531089
-0.0341812
-0.0111389
0.0194191
0.0616412
0.117067
0.185377
0.265564
0.35648
0.457058
0.566433
0.683703
0.808988
0.943542
1.09838
1.22435
-0.0912545
-0.0836766
-0.0692157
-0.0501624
-0.0270095
0.00340473
0.0447714
0.0986554
0.164978
0.243007
0.331907
0.43098
0.539767
0.657875
0.785647
0.924389
1.08106
1.2189
-0.108202
-0.102344
-0.0883025
-0.0695145
-0.0464843
-0.0163618
0.0240491
0.0762372
0.140301
0.215749
0.301992
0.398567
0.505196
0.621674
0.748248
0.88586
1.03878
1.18041
-0.126651
-0.121981
-0.108703
-0.0904968
-0.0678598
-0.0382545
0.00105913
0.0514322
0.11307
0.185662
0.268788
0.362094
0.46531
0.578172
0.700624
0.832947
0.977752
1.11566
-0.147706
-0.143846
-0.131629
-0.114308
-0.0923632
-0.0635833
-0.0256641
0.0225753
0.0814046
0.150659
0.230039
0.319225
0.417859
0.52549
0.64166
0.766012
0.899306
1.02899
-0.175457
-0.172231
-0.16144
-0.145493
-0.124789
-0.0974807
-0.0617115
-0.0165116
0.038425
0.103062
0.177195
0.260492
0.35244
0.452319
0.559203
0.671992
0.789851
0.905577
-0.212012
-0.209312
-0.200279
-0.186364
-0.167767
-0.142988
-0.110603
-0.0698751
-0.0204859
0.0376331
0.104352
0.179311
0.261864
0.351071
0.445665
0.543956
0.643923
0.740764
-0.259963
-0.257769
-0.250866
-0.239887
-0.224705
-0.204099
-0.177023
-0.142981
-0.10164
-0.0528568
0.00328388
0.0664171
0.135881
0.210699
0.289538
0.370493
0.450819
0.525914
-0.322272
-0.320689
-0.316457
-0.309665
-0.299775
-0.285752
-0.266849
-0.242774
-0.213182
-0.177871
-0.136923
-0.0908734
-0.0400479
0.0146972
0.0722022
0.130703
0.187232
0.23698
-0.4017
-0.401022
-0.400326
-0.399435
-0.397382
-0.393241
-0.386514
-0.377137
-0.364711
-0.348894
-0.329415
-0.309175
-0.286189
-0.261506
-0.236128
-0.211532
-0.190492
-0.177279
-0.49914
-0.499962
-0.504161
-0.511406
-0.520321
-0.530176
-0.540931
-0.552561
-0.565244
-0.579089
-0.59447
-0.609849
-0.628269
-0.650531
-0.677771
-0.711579
-0.754624
-0.810381
-0.585289
-0.587558
-0.596667
-0.611933
-0.631467
-0.654671
-0.681782
-0.713031
-0.748646
-0.788754
-0.833707
-0.884168
-0.941646
-1.00778
-1.08445
-1.17387
-1.27918
-1.40384
-0.645539
-0.6489
-0.66191
-0.683252
-0.710535
-0.743398
-0.782384
-0.827882
-0.88004
-0.938966
-1.00504
-1.07915
-1.16273
-1.25758
-1.36577
-1.48968
-1.63242
-1.79725
-0.689851
-0.694235
-0.710769
-0.737067
-0.770303
-0.810573
-0.858738
-0.915138
-0.97971
-1.05238
-1.13339
-1.22355
-1.32419
-1.43701
-1.56395
-1.70718
-1.86948
-2.05366
-0.720935
-0.726185
-0.745948
-0.776188
-0.813807
-0.85964
-0.914804
-0.979429
-1.05313
-1.13559
-1.22689
-1.3277
-1.4392
-1.56289
-1.70043
-1.85358
-2.02451
-2.21546
-0.741525
-0.747298
-0.77003
-0.80333
-0.844108
-0.894194
-0.954784
-1.02563
-1.10601
-1.19542
-1.29383
-1.40181
-1.52038
-1.65082
-1.79444
-1.95256
-2.12669
-2.31838
-0.753619
-0.759548
-0.785206
-0.820892
-0.864042
-0.917628
-0.982573
-1.05813
-1.14338
-1.23776
-1.34122
-1.45431
-1.57793
-1.71311
-1.86085
-2.02203
-2.19754
-2.3883
-0.757925
-0.763354
-0.792977
-0.830927
-0.876173
-0.932964
-1.00153
-1.08061
-1.16932
-1.26722
-1.37442
-1.49147
-1.61916
-1.75828
-1.90951
-2.07338
-2.2503
-2.44062
-0.75911
-0.758169
-0.794244
-0.83536
-0.882993
-0.942924
-1.01446
-1.09601
-1.18698
-1.28731
-1.39733
-1.51764
-1.64891
-1.79168
-1.94635
-2.11313
-2.29213
-2.4833
-0.78485
-0.748148
-0.790649
-0.836463
-0.887219
-0.950103
-1.02368
-1.10655
-1.19872
-1.30058
-1.41272
-1.53578
-1.67025
-1.81643
-1.97449
-2.14446
-2.32626
-2.51963
-0.855714
-0.792844
-0.79931
-0.837693
-0.890799
-0.956186
-1.03065
-1.11366
-1.20608
-1.3088
-1.42251
-1.54774
-1.68482
-1.8339
-1.99502
-2.16814
-2.35311
-2.54964
-0.36534
-0.673565
-0.78859
-0.835451
-0.891498
-0.959421
-1.03465
-1.11761
-1.21011
-1.31344
-1.42835
-1.55524
-1.69431
-1.84563
-2.00922
-2.18506
-2.37299
-2.57269
0.966964
0.958296
0.826967
0.620776
0.402828
0.211681
0.0698415
-0.0155734
-0.0538184
-0.0585535
-0.0458322
-0.0310007
-0.0270576
-0.0415233
-0.0773164
-0.136649
-0.223333
-0.345051
-0.513391
-0.740913
-1.03697
-1.40538
-1.8435
-2.34282
-2.89045
-3.47094
-4.06806
-4.66632
-5.25198
-5.81363
-6.34232
-6.83139
-7.27622
-7.67399
-8.02342
-8.32474
-8.57924
-8.78681
-8.94479
-9.05178
-9.10631
-9.11345
-9.07714
-9.00063
-8.88695
-8.73906
-8.55996
-8.35274
-8.12053
-7.86652
-7.59395
-7.30599
-7.0058
-6.69642
-6.3808
-6.06171
-5.74174
-5.42329
-5.10855
-4.79947
-4.49778
-4.20496
-3.92229
-3.65079
-3.39131
-3.14448
-2.91074
-2.69039
-2.48356
-2.29026
-2.11038
-1.94371
-1.78996
-1.64878
-1.51975
-1.40242
-1.29631
-1.2009
-1.11568
-1.04013
-0.97372
-0.915946
-0.866312
-0.824343
-0.789588
-0.761619
-0.740033
-0.724437
-0.714455
-0.70974
-0.709995
-0.714972
-0.724353
-0.737192
-0.753277
-0.772386
-0.794221
-0.818449
-0.844718
-0.872664
-0.901922
-0.932124
-0.962908
-0.993924
-1.02484
-1.05534
-1.08516
-1.11405
-1.14185
-1.16841
-1.19356
-1.21702
-1.23847
-1.25792
-1.27541
-1.29095
-1.30454
-1.3162
-1.32594
-1.33379
-1.33979
-1.34398
-1.3464
-1.34709
-1.3461
-1.34346
-1.33921
-1.3334
-1.32604
-1.31715
-1.30676
-1.29487
-1.28148
-1.26658
-1.25017
-1.23225
-1.21279
-1.19178
-1.16922
-1.14509
-1.1194
-1.09213
-1.0633
-1.03293
-1.00107
-0.967769
-0.933102
-0.897173
-0.860105
-0.822043
-0.783156
-0.743633
-0.703685
-0.663539
-0.623441
-0.583652
-0.544446
-0.506097
-0.46887
-0.433002
-0.398643
-0.365985
-0.335214
-0.306499
-0.279971
-0.255714
-0.233757
-0.214065
-0.196525
-0.18093
-0.166979
-0.154288
-0.142422
-0.13091
-0.119454
-0.107414
-0.0948465
-0.0767584
-0.0608445
-0.0344265
0.572162
0.561609
0.406511
0.205704
0.0213444
-0.128083
-0.233696
-0.281496
-0.258489
-0.177025
-0.0657976
0.0436918
0.128525
0.174238
0.172799
0.12269
0.0281037
-0.110213
-0.305459
-0.5747
-0.928001
-1.36556
-1.87837
-2.45068
-3.06329
-3.69652
-4.33241
-4.95585
-5.55489
-6.12062
-6.64673
-7.12893
-7.5644
-7.95134
-8.28865
-8.57562
-8.81172
-8.99754
-9.13493
-9.22737
-9.27978
-9.29075
-9.2607
-9.19119
-9.08439
-8.94278
-8.76911
-8.5663
-8.33741
-8.08558
-7.81401
-7.52588
-7.22437
-6.91257
-6.59347
-6.26989
-5.94453
-5.61987
-5.29817
-4.9815
-4.67167
-4.37028
-4.07869
-3.79803
-3.52924
-3.27304
-3.02995
-2.80033
-2.5844
-2.38221
-2.19371
-2.01874
-1.85705
-1.70831
-1.57214
-1.44811
-1.33574
-1.23454
-1.14399
-1.06357
-0.992757
-0.93102
-0.877855
-0.832765
-0.795278
-0.764938
-0.741307
-0.723953
-0.712454
-0.706399
-0.705363
-0.708832
-0.716344
-0.728131
-0.74363
-0.762429
-0.78416
-0.808462
-0.834968
-0.863305
-0.8931
-0.923977
-0.95557
-0.987522
-1.01949
-1.05114
-1.08217
-1.11228
-1.14121
-1.16874
-1.19463
-1.21863
-1.24085
-1.26125
-1.27972
-1.29622
-1.31074
-1.32328
-1.33385
-1.34248
-1.3492
-1.35404
-1.35705
-1.35827
-1.35774
-1.35551
-1.35162
-1.34611
-1.33902
-1.33037
-1.3202
-1.30851
-1.29532
-1.28064
-1.26446
-1.24678
-1.22761
-1.20693
-1.18474
-1.16104
-1.13581
-1.10907
-1.08082
-1.05108
-1.01988
-0.98727
-0.953322
-0.918126
-0.881792
-0.844455
-0.80627
-0.767413
-0.728081
-0.688489
-0.648867
-0.60946
-0.570517
-0.532283
-0.494987
-0.458841
-0.424072
-0.390898
-0.359484
-0.329987
-0.302539
-0.277231
-0.254093
-0.233088
-0.214099
-0.196915
-0.18124
-0.166699
-0.152876
-0.139297
-0.124765
-0.108467
-0.0897298
-0.0718471
-0.0453659
-0.0183855
0.418311
0.360467
0.204066
0.0429563
-0.0925731
-0.19156
-0.247555
-0.256416
-0.217989
-0.141319
-0.0441592
0.0500271
0.118359
0.143967
0.114112
0.0177756
-0.152443
-0.398643
-0.718627
-1.10671
-1.55433
-2.05085
-2.58445
-3.14311
-3.71542
-4.2911
-4.86118
-5.41803
-5.95515
-6.46705
-6.94905
-7.39728
-7.80847
-8.17999
-8.50965
-8.79561
-9.03609
-9.22978
-9.37783
-9.48039
-9.53927
-9.55543
-9.53005
-9.46478
-9.36162
-9.22289
-9.0512
-8.84936
-8.62036
-8.3673
-8.09338
-7.8018
-7.49576
-7.17841
-6.8528
-6.52184
-6.18829
-5.85473
-5.52353
-5.19683
-4.87657
-4.56443
-4.26187
-3.97012
-3.6902
-3.42289
-3.1688
-2.92837
-2.70185
-2.48935
-2.29087
-2.10627
-1.93535
-1.77779
-1.63324
-1.50128
-1.38146
-1.27329
-1.17626
-1.08987
-1.01358
-0.946876
-0.889241
-0.840167
-0.799161
-0.765741
-0.739438
-0.719789
-0.706347
-0.698675
-0.69633
-0.698829
-0.705755
-0.716919
-0.731965
-0.750509
-0.772171
-0.796568
-0.823318
-0.852034
-0.882328
-0.913814
-0.946114
-0.97886
-1.0117
-1.04429
-1.07632
-1.10748
-1.1375
-1.16613
-1.19313
-1.21834
-1.24177
-1.26333
-1.28295
-1.30057
-1.31617
-1.32974
-1.34129
-1.35084
-1.35841
-1.36404
-1.36776
-1.36962
-1.36967
-1.36795
-1.36452
-1.35941
-1.35269
-1.34437
-1.3345
-1.3231
-1.31019
-1.2958
-1.27992
-1.26257
-1.24376
-1.22348
-1.20173
-1.17851
-1.15381
-1.12764
-1.10001
-1.07092
-1.04041
-1.00851
-0.975293
-0.940829
-0.905222
-0.868593
-0.831085
-0.792859
-0.7541
-0.715007
-0.675796
-0.636692
-0.597926
-0.559726
-0.52231
-0.485891
-0.450694
-0.416939
-0.384807
-0.354468
-0.326049
-0.299638
-0.275267
-0.252902
-0.232427
-0.213637
-0.196244
-0.179891
-0.164176
-0.148656
-0.132422
-0.115314
-0.0969123
-0.075661
-0.0490847
-0.0222169
0.801873
0.633168
0.445555
0.284441
0.155829
0.0608013
0.000886378
-0.0250427
-0.0245581
-0.0094536
0.0048202
0.000617867
-0.0390179
-0.127699
-0.274848
-0.48518
-0.758308
-1.08935
-1.47069
-1.89398
-2.35141
-2.83593
-3.34104
-3.86053
-4.38827
-4.91816
-5.44417
-5.96047
-6.46151
-6.94209
-7.39745
-7.8233
-8.21589
-8.57199
-8.88892
-9.16449
-9.397
-9.58542
-9.72953
-9.8294
-9.8854
-9.89824
-9.86903
-9.7993
-9.69098
-9.54631
-9.36787
-9.15846
-8.92109
-8.65891
-8.37516
-8.07315
-7.75614
-7.42737
-7.09
-6.74702
-6.4013
-6.0555
-5.71208
-5.37328
-5.04109
-4.71728
-4.40336
-4.10061
-3.81008
-3.53261
-3.26884
-3.01919
-2.78394
-2.56321
-2.35698
-2.16511
-1.98735
-1.8234
-1.67286
-1.53529
-1.41021
-1.29712
-1.19549
-1.10479
-1.0245
-0.954087
-0.893043
-0.840864
-0.797057
-0.761142
-0.732648
-0.711108
-0.69607
-0.687085
-0.68371
-0.685511
-0.69209
-0.703096
-0.718155
-0.736875
-0.758859
-0.783706
-0.811013
-0.840376
-0.871394
-0.903667
-0.936803
-0.970422
-1.00416
-1.03766
-1.07061
-1.10269
-1.13363
-1.16319
-1.19116
-1.21742
-1.24188
-1.26446
-1.28508
-1.30369
-1.32024
-1.33473
-1.34716
-1.35753
-1.36587
-1.37221
-1.37659
-1.37905
-1.37964
-1.37842
-1.37543
-1.37074
-1.36438
-1.35641
-1.34687
-1.33579
-1.3232
-1.30913
-1.29359
-1.27659
-1.25815
-1.23827
-1.21694
-1.19418
-1.16997
-1.14432
-1.11722
-1.08869
-1.05874
-1.02741
-0.994757
-0.960849
-0.925779
-0.889657
-0.852617
-0.814811
-0.776411
-0.737605
-0.698597
-0.659602
-0.620842
-0.582542
-0.544927
-0.508219
-0.472635
-0.438376
-0.405622
-0.374543
-0.345278
-0.317922
-0.292511
-0.269015
-0.247326
-0.227252
-0.208517
-0.19078
-0.173655
-0.156741
-0.139405
-0.121295
-0.10177
-0.0798539
-0.0545887
-0.0268862
1.68238
1.38953
1.11469
0.905099
0.743992
0.613307
0.504499
0.408543
0.315312
0.21414
0.0940903
-0.0551946
-0.242003
-0.471293
-0.744284
-1.059
-1.4115
-1.79719
-2.21166
-2.65085
-3.11091
-3.588
-4.07815
-4.57721
-5.08083
-5.58452
-6.08368
-6.57363
-7.04973
-7.50739
-7.94221
-8.35
-8.72691
-9.06944
-9.37454
-9.63963
-9.86265
-10.0422
-10.1775
-10.2682
-10.3144
-10.3167
-10.2761
-10.1942
-10.0728
-9.91433
-9.72128
-9.49659
-9.24336
-8.96484
-8.66441
-8.34548
-8.01147
-7.66573
-7.31153
-6.952
-6.59011
-6.2286
-5.87004
-5.51671
-5.17068
-4.83376
-4.5075
-4.19321
-3.89194
-3.60454
-3.33162
-3.07362
-2.83077
-2.60317
-2.39074
-2.19332
-2.0106
-1.84222
-1.68774
-1.54665
-1.41842
-1.30249
-1.19828
-1.10523
-1.02276
-0.95033
-0.887406
-0.83348
-0.788061
-0.750677
-0.72087
-0.698194
-0.682209
-0.672484
-0.66859
-0.670099
-0.676616
-0.687743
-0.703079
-0.722211
-0.744723
-0.770197
-0.798211
-0.828346
-0.860183
-0.893309
-0.927321
-0.961829
-0.996459
-1.03086
-1.0647
-1.09767
-1.12951
-1.15998
-1.18889
-1.2161
-1.24149
-1.26498
-1.28649
-1.30597
-1.32337
-1.33867
-1.35187
-1.36298
-1.37201
-1.379
-1.38397
-1.38699
-1.38809
-1.38734
-1.38479
-1.3805
-1.37452
-1.36691
-1.35772
-1.34698
-1.33473
-1.321
-1.30581
-1.28919
-1.27113
-1.25166
-1.23076
-1.20845
-1.1847
-1.15953
-1.13292
-1.10487
-1.07541
-1.04456
-1.01237
-0.978903
-0.944242
-0.908492
-0.871778
-0.834243
-0.79605
-0.75738
-0.718429
-0.679404
-0.640525
-0.602018
-0.564112
-0.527031
-0.490988
-0.456179
-0.422787
-0.39098
-0.360902
-0.332653
-0.306281
-0.281764
-0.259008
-0.237833
-0.217981
-0.199129
-0.180907
-0.162936
-0.144685
-0.125703
-0.105448
-0.0832754
-0.0590705
-0.030565
2.73875
2.35406
1.96608
1.67737
1.45436
1.25709
1.06488
0.863776
0.643412
0.397548
0.123524
-0.178975
-0.508832
-0.864086
-1.24238
-1.6413
-2.05855
-2.49206
-2.9399
-3.40026
-3.87126
-4.35094
-4.83711
-5.32729
-5.81863
-6.30793
-6.79163
-7.26585
-7.72649
-8.16932
-8.59009
-8.98464
-9.34902
-9.67958
-9.97303
-10.2266
-10.4378
-10.6052
-10.7276
-10.8044
-10.8357
-10.8219
-10.764
-10.6637
-10.5228
-10.3439
-10.1296
-9.88302
-9.60739
-9.30617
-8.98289
-8.64115
-8.28454
-7.91658
-7.54068
-7.16009
-6.77791
-6.39699
-6.01996
-5.64919
-5.28679
-4.9346
-4.59418
-4.26686
-3.95369
-3.65548
-3.37282
-3.1061
-2.85552
-2.62111
-2.40275
-2.2002
-2.01311
-1.84103
-1.68346
-1.53983
-1.40952
-1.29192
-1.18637
-1.09225
-1.00892
-0.935789
-0.872273
-0.817832
-0.771954
-0.734159
-0.703989
-0.681012
-0.664805
-0.654956
-0.651055
-0.652701
-0.659485
-0.671001
-0.686833
-0.70656
-0.729752
-0.755978
-0.784801
-0.815788
-0.848508
-0.882536
-0.91746
-0.952882
-0.988425
-1.02373
-1.05847
-1.09235
-1.1251
-1.15648
-1.18631
-1.21443
-1.24072
-1.26508
-1.28742
-1.30771
-1.3259
-1.34197
-1.35591
-1.36771
-1.37741
-1.38502
-1.39058
-1.39414
-1.39576
-1.39548
-1.39338
-1.38952
-1.38394
-1.37672
-1.36791
-1.35754
-1.34566
-1.33231
-1.31752
-1.30129
-1.28366
-1.26462
-1.24418
-1.22233
-1.19906
-1.17437
-1.14824
-1.12068
-1.09168
-1.06129
-1.02953
-0.996461
-0.962161
-0.926726
-0.890275
-0.852942
-0.814884
-0.776273
-0.7373
-0.698166
-0.65909
-0.620294
-0.582008
-0.544456
-0.507851
-0.47239
-0.438263
-0.405642
-0.374678
-0.345477
-0.318098
-0.292533
-0.268705
-0.246447
-0.225523
-0.205629
-0.186414
-0.167509
-0.148435
-0.128749
-0.108035
-0.085669
-0.062282
-0.0330845
3.63696
3.18584
2.69894
2.32934
2.03129
1.74973
1.45819
1.14204
0.793927
0.413647
0.00604847
-0.422203
-0.865005
-1.31786
-1.77794
-2.24365
-2.71418
-3.18914
-3.66831
-4.15148
-4.63829
-5.12809
-5.61986
-6.11209
-6.60274
-7.08927
-7.56863
-8.03734
-8.49162
-8.92741
-9.34057
-9.72694
-10.0825
-10.4035
-10.6865
-10.9285
-11.127
-11.2802
-11.3868
-11.4462
-11.4582
-11.4234
-11.343
-11.2185
-11.0522
-10.8466
-10.6047
-10.3297
-10.0253
-9.69507
-9.34279
-8.97231
-8.58743
-8.19186
-7.78919
-7.38284
-6.97602
-6.5717
-6.17259
-5.78112
-5.39944
-5.02942
-4.67263
-4.33038
-4.00368
-3.69332
-3.39984
-3.12357
-2.86462
-2.62297
-2.39843
-2.19066
-1.99925
-1.82367
-1.66334
-1.5176
-1.38579
-1.26718
-1.16107
-1.06674
-0.983489
-0.910653
-0.847588
-0.793694
-0.748412
-0.711227
-0.681661
-0.659271
-0.643639
-0.634365
-0.631058
-0.633326
-0.640773
-0.652995
-0.669578
-0.690098
-0.714125
-0.74122
-0.770942
-0.802847
-0.836498
-0.871462
-0.907322
-0.943676
-0.980143
-1.01637
-1.05202
-1.0868
-1.12044
-1.15272
-1.18344
-1.21244
-1.2396
-1.2648
-1.28797
-1.30904
-1.32799
-1.3448
-1.35944
-1.37193
-1.38227
-1.3905
-1.39666
-1.40078
-1.40292
-1.40315
-1.40153
-1.39812
-1.39299
-1.3862
-1.3778
-1.36785
-1.3564
-1.34348
-1.32911
-1.31334
-1.29616
-1.2776
-1.25764
-1.23629
-1.21353
-1.18934
-1.16372
-1.13665
-1.10814
-1.07821
-1.04688
-1.0142
-0.980252
-0.945116
-0.908902
-0.871742
-0.833782
-0.795189
-0.756146
-0.716852
-0.677518
-0.638366
-0.599623
-0.56151
-0.524243
-0.488026
-0.453053
-0.419506
-0.387541
-0.357279
-0.328789
-0.302084
-0.277099
-0.253694
-0.231654
-0.210693
-0.190485
-0.170672
-0.150821
-0.130522
-0.109417
-0.0868895
-0.0640691
-0.0343182
4.1654
3.66906
3.1166
2.68058
2.31109
1.94855
1.56621
1.15204
0.702783
0.222705
-0.279568
-0.794826
-1.31567
-1.83724
-2.3569
-2.87365
-3.38748
-3.89894
-4.40877
-4.91761
-5.42583
-5.93341
-6.43977
-6.94382
-7.44388
-7.93766
-8.42238
-8.89474
-9.35106
-9.78735
-10.1994
-10.5831
-10.9342
-11.2488
-11.5234
-11.7547
-11.9401
-12.0778
-12.1663
-12.205
-12.1938
-12.1334
-12.0251
-11.8707
-11.6727
-11.4339
-11.1576
-10.8476
-10.5075
-10.1415
-9.7536
-9.34798
-8.9287
-8.49971
-8.0648
-7.62758
-7.19138
-6.75931
-6.33414
-5.91837
-5.5142
-5.12349
-4.74781
-4.38842
-4.04633
-3.72223
-3.4166
-3.12969
-2.86154
-2.61202
-2.38083
-2.16757
-1.9717
-1.79261
-1.62963
-1.48201
-1.34901
-1.22982
-1.12365
-1.02971
-0.947227
-0.875447
-0.813656
-0.761181
-0.717401
-0.681742
-0.653684
-0.632751
-0.618508
-0.610549
-0.608487
-0.611937
-0.620514
-0.633824
-0.651463
-0.673016
-0.698057
-0.726155
-0.756868
-0.789755
-0.824376
-0.8603
-0.897106
-0.934391
-0.971776
-1.0089
-1.04545
-1.08112
-1.11564
-1.14879
-1.18037
-1.21022
-1.23821
-1.26422
-1.28818
-1.31003
-1.32971
-1.34722
-1.36256
-1.37571
-1.3867
-1.39555
-1.4023
-1.40699
-1.40968
-1.41043
-1.40932
-1.40641
-1.40176
-1.39545
-1.38752
-1.37804
-1.36706
-1.35461
-1.34074
-1.32546
-1.30879
-1.29074
-1.27132
-1.2505
-1.22828
-1.20464
-1.17955
-1.15301
-1.125
-1.09554
-1.06466
-1.03239
-0.998795
-0.963959
-0.927982
-0.890986
-0.85311
-0.814515
-0.775376
-0.735886
-0.696252
-0.65669
-0.617423
-0.578673
-0.540656
-0.503583
-0.467656
-0.433064
-0.399974
-0.368521
-0.338792
-0.310816
-0.284553
-0.259889
-0.236632
-0.214526
-0.193268
-0.172517
-0.151881
-0.130974
-0.109476
-0.0867846
-0.0643428
-0.034222
4.24392
3.72804
3.14839
2.67039
2.24753
1.82375
1.37538
0.893778
0.378715
-0.163637
-0.723902
-1.29282
-1.86322
-2.43051
-2.99236
-3.54804
-4.09783
-4.64253
-5.18308
-5.72029
-6.25465
-6.78623
-7.31457
-7.83863
-8.35678
-8.86679
-9.36583
-9.85058
-10.3172
-10.7617
-11.1796
-11.5664
-11.9179
-12.2299
-12.4986
-12.7205
-12.8929
-13.0139
-13.0821
-13.0969
-13.0584
-12.9673
-12.8253
-12.6346
-12.3979
-12.1187
-11.8006
-11.4477
-11.0644
-10.655
-10.2242
-9.77627
-9.31577
-8.8469
-8.3737
-7.89995
-7.42917
-6.96456
-6.50899
-6.06501
-5.63483
-5.2203
-4.82297
-4.44407
-4.0845
-3.74492
-3.42569
-3.12696
-2.84866
-2.59054
-2.35218
-2.13306
-1.93253
-1.74986
-1.58426
-1.43491
-1.30093
-1.18146
-1.0756
-0.982492
-0.901273
-0.831116
-0.771225
-0.720853
-0.679303
-0.645934
-0.620163
-0.601465
-0.589368
-0.583438
-0.583275
-0.588493
-0.598707
-0.613531
-0.632576
-0.655439
-0.681709
-0.710967
-0.742782
-0.776723
-0.812358
-0.849259
-0.887012
-0.92522
-0.963505
-1.00151
-1.03892
-1.07544
-1.11081
-1.14479
-1.17719
-1.20785
-1.23663
-1.26342
-1.28814
-1.31073
-1.33113
-1.34934
-1.36534
-1.37914
-1.39076
-1.40022
-1.40756
-1.41283
-1.41609
-1.4174
-1.41682
-1.41444
-1.41031
-1.40451
-1.3971
-1.38814
-1.37767
-1.36575
-1.35241
-1.33767
-1.32156
-1.30408
-1.28523
-1.26499
-1.24335
-1.22028
-1.19576
-1.16977
-1.1423
-1.11335
-1.08293
-1.05109
-1.01788
-0.983363
-0.947639
-0.910819
-0.873035
-0.834438
-0.795198
-0.7555
-0.715542
-0.675536
-0.6357
-0.596253
-0.557416
-0.519401
-0.48242
-0.44667
-0.412332
-0.379553
-0.34844
-0.319045
-0.291355
-0.265286
-0.240676
-0.217304
-0.194892
-0.173125
-0.151644
-0.130085
-0.108156
-0.0852721
-0.0630519
-0.0327703
3.89661
3.39197
2.81811
2.32409
1.87175
1.41231
0.926039
0.40709
-0.143102
-0.718061
-1.30903
-1.90764
-2.50747
-3.1044
-3.6963
-4.28245
-4.86305
-5.43872
-6.01019
-6.57807
-7.14266
-7.70383
-8.26096
-8.81282
-9.35757
-9.89276
-10.4153
-10.9215
-11.4074
-11.8683
-12.2995
-12.6962
-13.0536
-13.3673
-13.633
-13.8471
-14.0067
-14.1099
-14.1554
-14.1427
-14.0719
-13.9444
-13.762
-13.5275
-13.2443
-12.9161
-12.5475
-12.143
-11.7075
-11.2461
-10.7638
-10.2655
-9.75599
-9.23993
-8.72161
-8.20504
-7.69388
-7.19146
-6.70073
-6.22425
-5.76424
-5.32252
-4.9006
-4.4996
-4.12037
-3.76343
-3.42905
-3.11724
-2.82779
-2.5603
-2.31423
-2.08889
-1.88348
-1.69715
-1.52898
-1.378
-1.24325
-1.12375
-1.01851
-0.926575
-0.847011
-0.778908
-0.721392
-0.67364
-0.634878
-0.604393
-0.581534
-0.565714
-0.556406
-0.553137
-0.555476
-0.563016
-0.575366
-0.592143
-0.612963
-0.63744
-0.665179
-0.695779
-0.728829
-0.763912
-0.800612
-0.838516
-0.87722
-0.916336
-0.955495
-0.994352
-1.03259
-1.06992
-1.10607
-1.14084
-1.17401
-1.20543
-1.23496
-1.26249
-1.28793
-1.31123
-1.33232
-1.3512
-1.36785
-1.38228
-1.39452
-1.40458
-1.41252
-1.41837
-1.4222
-1.42407
-1.42406
-1.42222
-1.41865
-1.4134
-1.40654
-1.39813
-1.38822
-1.37686
-1.3641
-1.34995
-1.33443
-1.31755
-1.29931
-1.27968
-1.25865
-1.23619
-1.21227
-1.18687
-1.15996
-1.13155
-1.10164
-1.07026
-1.03746
-1.00329
-0.967848
-0.931231
-0.893563
-0.854987
-0.815662
-0.775764
-0.735485
-0.695027
-0.654603
-0.61443
-0.574727
-0.535711
-0.497598
-0.460596
-0.424896
-0.390664
-0.358026
-0.32706
-0.297783
-0.270144
-0.244021
-0.219228
-0.195522
-0.17262
-0.150193
-0.127904
-0.105476
-0.0823478
-0.0602122
-0.0299705
3.21998
2.74602
2.19987
1.71066
1.2499
0.776892
0.275497
-0.258181
-0.821911
-1.40957
-2.01348
-2.62647
-3.24301
-3.85949
-4.47391
-5.08545
-5.69404
-6.29996
-6.90357
-7.50512
-8.10455
-8.70138
-9.29461
-9.88261
-10.4631
-11.0332
-11.5893
-12.1271
-12.642
-13.1286
-13.5818
-13.9959
-14.3657
-14.686
-14.9523
-15.1605
-15.3076
-15.3918
-15.4117
-15.3671
-15.2585
-15.0877
-14.8571
-14.5701
-14.2308
-13.8438
-13.4144
-12.9478
-12.4499
-11.9263
-11.3826
-10.8245
-10.2571
-9.68552
-9.11433
-8.54782
-7.98981
-7.44374
-6.91259
-6.39895
-5.90499
-5.43246
-4.98278
-4.55697
-4.15575
-3.7795
-3.42834
-3.10213
-2.80049
-2.52286
-2.26851
-2.03658
-1.82612
-1.63607
-1.46538
-1.31293
-1.17761
-1.05833
-0.95399
-0.863546
-0.785967
-0.720264
-0.665488
-0.620742
-0.585181
-0.558019
-0.538538
-0.526083
-0.520068
-0.519969
-0.52531
-0.535655
-0.55059
-0.569723
-0.592675
-0.619069
-0.648526
-0.680665
-0.715095
-0.751424
-0.789256
-0.828196
-0.867859
-0.907873
-0.94788
-0.987548
-1.02657
-1.06465
-1.10155
-1.13704
-1.17093
-1.20306
-1.23328
-1.2615
-1.28762
-1.31158
-1.33334
-1.35287
-1.37015
-1.38519
-1.39802
-1.40868
-1.4172
-1.42363
-1.42804
-1.43048
-1.43104
-1.42978
-1.42677
-1.42209
-1.41581
-1.40798
-1.39867
-1.38791
-1.37575
-1.36221
-1.34732
-1.33107
-1.31346
-1.29448
-1.27409
-1.25226
-1.22896
-1.20417
-1.17785
-1.15
-1.12063
-1.08974
-1.05737
-1.02359
-0.988463
-0.952084
-0.914568
-0.876046
-0.836667
-0.796599
-0.756021
-0.715129
-0.674127
-0.633226
-0.592643
-0.552598
-0.513309
-0.474993
-0.43785
-0.402063
-0.367781
-0.335106
-0.30409
-0.274719
-0.246914
-0.220532
-0.195372
-0.171186
-0.147682
-0.124553
-0.10153
-0.0780929
-0.0559679
-0.0258285
2.32088
1.88759
1.38099
0.910075
0.455388
-0.0162416
-0.517951
-1.05231
-1.61675
-2.20577
-2.81287
-3.43208
-4.05879
-4.68988
-5.3235
-5.95869
-6.59511
-7.23268
-7.8714
-8.5111
-9.15129
-9.79104
-10.4288
-11.0625
-11.6892
-12.3053
-12.9063
-13.4871
-14.0422
-14.5654
-15.0503
-15.4906
-15.8801
-16.213
-16.484
-16.6887
-16.8237
-16.8874
-16.8786
-16.7973
-16.6445
-16.4224
-16.1345
-15.7848
-15.3784
-14.921
-14.4188
-13.8782
-13.3057
-12.7081
-12.0917
-11.4628
-10.8273
-10.1906
-9.55773
-8.93324
-8.32113
-7.7249
-7.14758
-6.5917
-6.05933
-5.55214
-5.07138
-4.61791
-4.19228
-3.7947
-3.4251
-3.08314
-2.76825
-2.47968
-2.2165
-1.97763
-1.76192
-1.56813
-1.395
-1.24125
-1.1056
-0.986813
-0.88368
-0.79503
-0.719741
-0.656738
-0.604996
-0.563548
-0.531482
-0.507948
-0.492163
-0.483409
-0.48104
-0.484477
-0.493194
-0.506713
-0.524591
-0.546419
-0.571811
-0.600393
-0.631801
-0.665668
-0.701629
-0.739313
-0.778349
-0.818368
-0.859007
-0.899912
-0.940745
-0.981187
-1.02094
-1.05973
-1.09732
-1.13348
-1.16802
-1.2008
-1.23167
-1.26052
-1.28727
-1.31185
-1.33423
-1.35437
-1.37225
-1.38789
-1.40131
-1.41254
-1.42163
-1.42863
-1.43361
-1.43664
-1.43777
-1.43709
-1.43467
-1.43059
-1.4249
-1.41767
-1.40897
-1.39883
-1.38729
-1.37439
-1.36015
-1.34455
-1.32759
-1.30926
-1.28952
-1.26834
-1.24568
-1.22151
-1.1958
-1.16854
-1.13971
-1.10933
-1.07743
-1.04406
-1.00928
-0.973167
-0.935837
-0.897405
-0.85801
-0.817808
-0.776968
-0.735675
-0.694123
-0.652518
-0.611072
-0.570001
-0.529529
-0.489873
-0.451247
-0.413846
-0.377837
-0.343354
-0.310478
-0.279238
-0.249599
-0.221467
-0.194688
-0.16906
-0.144332
-0.12023
-0.0964945
-0.0726762
-0.0505721
-0.0203804
1.29403
0.90561
0.443611
-0.00179131
-0.442292
-0.904411
-1.39878
-1.927
-2.48646
-3.07234
-3.67925
-4.30235
-4.93785
-5.58311
-6.23641
-6.89678
-7.56365
-8.2367
-8.91556
-9.59971
-10.2883
-10.9798
-11.6721
-12.3626
-13.0473
-13.7218
-14.3806
-15.0174
-15.6253
-16.197
-16.7247
-17.201
-17.6186
-17.9707
-18.2515
-18.4556
-18.5795
-18.6216
-18.5809
-18.4577
-18.2537
-17.9719
-17.6165
-17.1929
-16.7072
-16.1665
-15.578
-14.9496
-14.289
-13.6039
-12.9018
-12.1898
-11.4745
-10.7619
-10.0574
-9.36594
-8.69164
-8.03809
-7.40827
-6.80464
-6.22912
-5.68319
-5.16788
-4.68383
-4.23135
-3.81041
-3.42071
-3.06167
-2.7325
-2.43221
-2.15964
-1.9135
-1.69238
-1.49483
-1.31938
-1.16452
-1.02881
-0.910819
-0.809203
-0.722662
-0.649962
-0.589936
-0.541479
-0.503555
-0.475191
-0.455481
-0.443584
-0.438728
-0.440212
-0.447404
-0.459729
-0.476661
-0.497724
-0.522485
-0.550546
-0.58153
-0.615077
-0.650835
-0.688457
-0.727598
-0.767911
-0.809055
-0.850689
-0.892485
-0.934124
-0.975308
-1.01575
-1.0552
-1.09341
-1.13018
-1.16533
-1.19869
-1.23014
-1.25957
-1.2869
-1.31206
-1.33502
-1.35573
-1.37418
-1.3904
-1.40438
-1.41618
-1.42583
-1.43339
-1.43894
-1.44254
-1.44426
-1.44416
-1.44234
-1.43885
-1.43377
-1.42716
-1.41908
-1.40958
-1.39869
-1.38644
-1.37285
-1.35791
-1.34161
-1.32394
-1.30486
-1.28433
-1.26232
-1.23877
-1.21367
-1.18699
-1.15872
-1.12887
-1.09745
-1.0645
-1.03008
-0.994264
-0.957144
-0.91883
-0.87945
-0.839147
-0.798081
-0.756422
-0.714358
-0.672084
-0.629806
-0.587738
-0.546101
-0.505118
-0.465006
-0.425973
-0.388206
-0.351862
-0.317056
-0.283855
-0.252272
-0.222262
-0.193726
-0.16651
-0.140411
-0.115198
-0.0906261
-0.0663033
-0.0436046
-0.0144869
0.220668
-0.122234
-0.538822
-0.956005
-1.37914
-1.82892
-2.31378
-2.83462
-3.38886
-3.97237
-4.58072
-5.20998
-5.85708
-6.51981
-7.19668
-7.88672
-8.5893
-9.30392
-10.03
-10.7667
-11.5128
-12.2664
-13.0248
-13.7842
-14.5401
-15.2867
-16.0172
-16.7237
-17.3979
-18.0307
-18.6129
-19.1356
-19.5901
-19.9687
-20.2644
-20.4714
-20.5857
-20.6056
-20.5303
-20.3607
-20.0991
-19.7494
-19.317
-18.8084
-18.2312
-17.5939
-16.9054
-16.1748
-15.4115
-14.6246
-13.8227
-13.014
-12.206
-11.4055
-10.6184
-9.85005
-9.10466
-8.38591
-7.69675
-7.03945
-6.41572
-5.82678
-5.27334
-4.75576
-4.27399
-3.82772
-3.41633
-3.03896
-2.69454
-2.38182
-2.09937
-1.84565
-1.619
-1.41771
-1.24006
-1.08432
-0.948825
-0.831957
-0.732191
-0.648082
-0.578271
-0.521486
-0.476537
-0.442316
-0.417795
-0.402018
-0.394097
-0.393215
-0.398625
-0.409651
-0.425671
-0.446114
-0.470474
-0.498291
-0.529149
-0.562664
-0.598474
-0.636234
-0.675614
-0.716289
-0.757938
-0.800243
-0.842891
-0.885576
-0.928007
-0.969902
-1.011
-1.05105
-1.08984
-1.12716
-1.16284
-1.19674
-1.22872
-1.25867
-1.28653
-1.31222
-1.3357
-1.35695
-1.37594
-1.3927
-1.40723
-1.41957
-1.42978
-1.4379
-1.44401
-1.44818
-1.45047
-1.45097
-1.44974
-1.44687
-1.4424
-1.43642
-1.42898
-1.42012
-1.40989
-1.3983
-1.38537
-1.3711
-1.35547
-1.33846
-1.32004
-1.30016
-1.27878
-1.25587
-1.23138
-1.20528
-1.17757
-1.14824
-1.1173
-1.08478
-1.05073
-1.01521
-0.978311
-0.940129
-0.900781
-0.860397
-0.819126
-0.777129
-0.734581
-0.69167
-0.648593
-0.605561
-0.562792
-0.52051
-0.478937
-0.438292
-0.398776
-0.360568
-0.323815
-0.28862
-0.25504
-0.223081
-0.192696
-0.163786
-0.136201
-0.109754
-0.084232
-0.059307
-0.0360256
-0.00779844
-0.826101
-1.1245
-1.49714
-1.88645
-2.29272
-2.73142
-3.20893
-3.72552
-4.27867
-4.86477
-5.48012
-6.12151
-6.78643
-7.47306
-8.18015
-8.90685
-9.65257
-10.4168
-11.1988
-11.9976
-12.8116
-13.6384
-14.4748
-15.316
-16.1564
-16.9887
-17.8044
-18.5941
-19.3473
-20.0533
-20.7008
-21.2793
-21.7788
-22.1902
-22.5058
-22.7192
-22.8258
-22.8241
-22.7133
-22.4948
-22.1715
-21.7483
-21.2318
-20.6297
-19.9512
-19.2063
-18.4054
-17.5596
-16.6799
-15.7769
-14.8609
-13.9416
-13.0275
-12.1264
-11.245
-10.389
-9.56292
-8.77053
-8.01466
-7.29738
-6.62012
-5.98369
-5.38846
-4.83435
-4.32092
-3.84743
-3.41289
-3.01609
-2.6556
-2.32985
-2.03714
-1.77561
-1.54335
-1.33837
-1.15868
-1.00231
-0.867328
-0.7519
-0.654316
-0.572962
-0.506331
-0.453036
-0.411791
-0.381416
-0.360827
-0.34902
-0.345073
-0.348134
-0.357425
-0.372231
-0.391894
-0.41581
-0.443444
-0.474313
-0.507983
-0.544057
-0.582169
-0.621976