/*--------------------------------*- C++ -*----------------------------------*\
  =========                 |
  \\      /  F ield         | OpenFOAM: The Open Source CFD Toolbox
   \\    /   O peration     | Website:  https://openfoam.org
    \\  /    A nd           | Version:  9
     \\/     M anipulation  |
\*---------------------------------------------------------------------------*/
FoamFile
{
    format      ascii;
    class       surfaceScalarField;
    location    "0.22";
    object      phi;
}
// * * * * * * * * * * * * * * * * * * * * * * * * * * * * * * * * * * * * * //

dimensions      [0 3 -1 0 0 0 0];

internalField   nonuniform List<scalar> 
24170
(
3.07253e-07
1.15873e-08
2.5607e-07
5.11837e-08
2.15573e-07
4.04962e-08
1.852e-07
3.03732e-08
1.65547e-07
1.96534e-08
1.54174e-07
1.13724e-08
1.46906e-07
7.26862e-09
1.40184e-07
6.72208e-09
1.31257e-07
8.92613e-09
1.1835e-07
1.29078e-08
1.01059e-07
1.72907e-08
8.05985e-08
2.04604e-08
5.96871e-08
2.09114e-08
4.20973e-08
1.75898e-08
3.37149e-08
8.3824e-09
4.7853e-08
-1.41381e-08
1.11033e-07
-6.31801e-08
4.05768e-08
7.04563e-08
3.40593e-07
1.27196e-08
3.27008e-07
6.47686e-08
3.0033e-07
6.71735e-08
2.7357e-07
5.71334e-08
2.52542e-07
4.06811e-08
2.38778e-07
2.51371e-08
2.30711e-07
1.53349e-08
2.2527e-07
1.21639e-08
2.19144e-07
1.50514e-08
2.09416e-07
2.26362e-08
1.94067e-07
3.26396e-08
1.72616e-07
4.1912e-08
1.46684e-07
4.68424e-08
1.20375e-07
4.38991e-08
1.00326e-07
2.84315e-08
9.75884e-08
-1.14004e-08
1.15201e-07
-8.07922e-08
8.13657e-08
7.44116e-08
3.62125e-07
1.6846e-08
3.56374e-07
7.05201e-08
3.38937e-07
8.461e-08
3.18047e-07
7.8024e-08
2.99681e-07
5.90469e-08
2.86966e-07
3.78526e-08
2.79741e-07
2.25594e-08
2.75721e-07
1.61843e-08
2.71931e-07
1.88414e-08
2.65486e-07
2.90809e-08
2.53993e-07
4.41331e-08
2.35984e-07
5.99211e-08
2.11534e-07
7.12922e-08
1.83038e-07
7.23946e-08
1.55448e-07
5.60212e-08
1.35362e-07
8.68562e-09
1.15863e-07
-6.12932e-08
1.14798e-07
8.24307e-08
3.89558e-07
1.98265e-08
3.84327e-07
7.57519e-08
3.70589e-07
9.83478e-08
3.53363e-07
9.52499e-08
3.37686e-07
7.47241e-08
3.26653e-07
4.88847e-08
3.20644e-07
2.85693e-08
3.1795e-07
1.88778e-08
3.16011e-07
2.07807e-08
3.12187e-07
3.29044e-08
3.04099e-07
5.22215e-08
2.89836e-07
7.41839e-08
2.68328e-07
9.28003e-08
2.40033e-07
1.00689e-07
2.07247e-07
8.88075e-08
1.7213e-07
4.38028e-08
1.27866e-07
-1.70293e-08
1.50468e-07
9.21965e-08
4.18156e-07
2.23835e-08
4.12722e-07
8.11854e-08
4.00952e-07
1.10118e-07
3.86368e-07
1.09834e-07
3.73117e-07
8.7975e-08
3.63886e-07
5.81155e-08
3.59198e-07
3.32572e-08
3.57734e-07
2.03419e-08
3.57301e-07
2.12139e-08
3.55545e-07
3.46609e-08
3.50233e-07
5.75334e-08
3.39302e-07
8.51144e-08
3.20939e-07
1.11163e-07
2.93939e-07
1.27689e-07
2.57905e-07
1.24841e-07
2.11373e-07
9.03355e-08
1.49732e-07
4.46117e-08
1.94673e-07
1.05526e-07
4.48177e-07
2.5115e-08
4.42456e-07
8.69063e-08
4.31916e-07
1.20658e-07
4.19399e-07
1.2235e-07
4.08312e-07
9.90628e-08
4.00851e-07
6.55762e-08
3.97492e-07
3.66163e-08
3.97153e-07
2.0681e-08
3.97941e-07
2.04255e-08
3.97772e-07
3.48297e-08
3.94601e-07
6.07044e-08
3.86367e-07
9.3349e-08
3.70848e-07
1.26682e-07
3.45659e-07
1.52878e-07
3.08226e-07
1.62274e-07
2.54488e-07
1.44074e-07
1.81354e-07
1.17746e-07
2.48594e-07
1.27433e-07
4.80202e-07
2.81846e-08
4.74122e-07
9.29871e-08
4.64408e-07
1.30372e-07
4.53584e-07
1.33175e-07
4.44431e-07
1.08216e-07
4.38654e-07
7.1353e-08
4.36574e-07
3.86961e-08
4.3724e-07
2.00154e-08
4.38995e-07
1.86699e-08
4.39996e-07
3.3829e-08
4.38388e-07
6.23124e-08
4.32195e-07
9.95423e-08
4.19046e-07
1.39831e-07
3.95897e-07
1.76027e-07
3.5877e-07
1.99401e-07
3.01956e-07
2.00887e-07
2.23177e-07
1.96526e-07
3.10565e-07
1.61205e-07
5.14583e-07
3.15599e-08
5.08099e-07
9.94714e-08
4.98985e-07
1.39485e-07
4.896e-07
1.4256e-07
4.82191e-07
1.15625e-07
4.77987e-07
7.55575e-08
4.77097e-07
3.9586e-08
4.78626e-07
1.84866e-08
4.81107e-07
1.61887e-08
4.82912e-07
3.20243e-08
4.82378e-07
6.28462e-08
4.77667e-07
1.04253e-07
4.66446e-07
1.51051e-07
4.45464e-07
1.97009e-07
4.10127e-07
2.34738e-07
3.54015e-07
2.57e-07
2.74957e-07
2.75584e-07
3.77828e-07
2.07694e-07
5.5154e-07
3.5154e-08
5.44683e-07
1.06327e-07
5.36054e-07
1.48115e-07
5.27935e-07
1.50678e-07
5.22107e-07
1.21452e-07
5.19346e-07
7.83193e-08
5.1952e-07
3.94113e-08
5.21745e-07
1.62615e-08
5.24714e-07
1.32204e-08
5.27004e-07
2.97343e-08
5.27157e-07
6.26925e-08
5.23523e-07
1.07887e-07
5.13941e-07
1.60634e-07
4.95291e-07
2.15659e-07
4.6302e-07
2.67009e-07
4.1082e-07
3.092e-07
3.36232e-07
3.50171e-07
4.46909e-07
2.67152e-07
5.91265e-07
3.88667e-08
5.84142e-07
1.1345e-07
5.75961e-07
1.56296e-07
5.68987e-07
1.57653e-07
5.64591e-07
1.25848e-07
5.63122e-07
7.97882e-08
5.64201e-07
3.83325e-08
5.66927e-07
1.35351e-08
5.70143e-07
1.00047e-08
5.72643e-07
2.72341e-08
5.73203e-07
6.21329e-08
5.70411e-07
1.10679e-07
5.62384e-07
1.6866e-07
5.46365e-07
2.31679e-07
5.18296e-07
2.95078e-07
4.72618e-07
3.54878e-07
4.06712e-07
4.16078e-07
5.13132e-07
3.40488e-07
6.33951e-07
4.25968e-08
6.26723e-07
1.20678e-07
6.19017e-07
1.64002e-07
6.13102e-07
1.63567e-07
6.09995e-07
1.28956e-07
6.09646e-07
8.01367e-08
6.11433e-07
3.65453e-08
6.14439e-07
1.05294e-08
6.17662e-07
6.7818e-09
6.20141e-07
2.47555e-08
6.20926e-07
6.13471e-08
6.1891e-07
1.12695e-07
6.12572e-07
1.74998e-07
5.99662e-07
2.44589e-07
5.76885e-07
3.17856e-07
5.39833e-07
3.91929e-07
4.86152e-07
4.69759e-07
5.70893e-07
4.28391e-07
5.70985e-07
4.56957e-08
5.6497e-07
1.26693e-07
5.58886e-07
1.70086e-07
5.54666e-07
1.67787e-07
5.52931e-07
1.30691e-07
5.53357e-07
7.97102e-08
5.55246e-07
3.46569e-08
5.5782e-07
7.95506e-09
5.60375e-07
4.22692e-09
5.62318e-07
2.28124e-08
5.63103e-07
6.05621e-08
5.62074e-07
1.13724e-07
5.58285e-07
1.78788e-07
5.50294e-07
2.5258e-07
5.36008e-07
3.32142e-07
5.12775e-07
4.15162e-07
4.79126e-07
5.03408e-07
6.08292e-07
4.41727e-07
6.96415e-07
4.90964e-08
6.89777e-07
1.33331e-07
6.83422e-07
1.76441e-07
6.79495e-07
1.71714e-07
6.78436e-07
1.3175e-07
6.79594e-07
7.85528e-08
6.82005e-07
3.22455e-08
6.84809e-07
5.15078e-09
6.87389e-07
1.64711e-09
6.89353e-07
2.08489e-08
6.90407e-07
5.95084e-08
6.90166e-07
1.13964e-07
6.87976e-07
1.80978e-07
6.82745e-07
2.57811e-07
6.72852e-07
3.42035e-07
6.56326e-07
4.31688e-07
6.32468e-07
5.27266e-07
6.34631e-07
6.06128e-07
8.49521e-07
5.26601e-08
8.42585e-07
1.40267e-07
8.3637e-07
1.82656e-07
8.33127e-07
1.74957e-07
8.33008e-07
1.31869e-07
8.34959e-07
7.66015e-08
8.37743e-07
2.94618e-08
8.40478e-07
2.41552e-09
8.42771e-07
-6.45809e-10
8.44608e-07
1.90116e-08
8.46146e-07
5.79706e-08
8.47483e-07
1.12627e-07
8.48486e-07
1.79975e-07
8.48662e-07
2.57636e-07
8.47115e-07
3.43581e-07
8.42755e-07
4.36048e-07
8.35548e-07
5.34473e-07
6.41084e-07
8.29094e-07
1.03643e-06
5.61519e-08
1.02983e-06
1.46868e-07
1.02448e-06
1.88005e-07
1.02251e-06
1.76928e-07
1.02362e-06
1.30753e-07
1.02631e-06
7.39118e-08
1.02912e-06
2.66558e-08
1.03129e-06
2.41529e-10
1.03289e-06
-2.24161e-09
1.03453e-06
1.73739e-08
1.03708e-06
5.54222e-08
1.04139e-06
1.08314e-07
1.04815e-06
1.73212e-07
1.05779e-06
2.48e-07
1.07041e-06
3.30959e-07
1.08591e-06
4.20551e-07
1.10464e-06
5.15739e-07
6.16761e-07
1.12896e-06
1.26466e-06
5.91689e-08
1.2595e-06
1.52025e-07
1.25629e-06
1.91224e-07
1.25655e-06
1.7666e-07
1.25933e-06
1.27973e-07
1.26264e-06
7.06009e-08
1.26499e-06
2.43142e-08
1.26603e-06
-8.05864e-10
1.26663e-06
-2.84044e-09
1.26837e-06
1.56356e-08
1.27314e-06
5.06504e-08
1.28285e-06
9.86086e-08
1.29933e-06
1.56735e-07
1.32427e-06
2.23053e-07
1.35917e-06
2.96063e-07
1.40511e-06
3.74605e-07
1.46286e-06
4.5799e-07
5.4627e-07
1.53336e-06
1.54349e-06
6.09996e-08
1.54164e-06
1.53875e-07
1.54269e-06
1.9017e-07
1.54687e-06
1.72486e-07
1.55217e-06
1.22669e-07
1.55623e-06
6.65455e-08
1.55784e-06
2.26967e-08
1.55759e-06
-5.54701e-10
1.55756e-06
-2.81218e-09
1.56069e-06
1.25067e-08
1.57028e-06
4.10613e-08
1.58936e-06
7.95332e-08
1.62125e-06
1.24839e-07
1.66914e-06
1.7517e-07
1.7361e-06
2.29104e-07
1.82477e-06
2.85933e-07
1.93674e-06
3.46019e-07
4.10773e-07
2.07224e-06
1.88438e-06
6.03871e-08
1.88882e-06
1.49429e-07
1.89754e-06
1.81453e-07
1.90836e-06
1.6166e-07
1.91798e-06
1.13054e-07
1.92383e-06
6.0696e-08
1.92554e-06
2.09872e-08
1.92515e-06
-1.6857e-10
1.92646e-06
-4.11618e-09
1.93397e-06
4.99358e-09
1.95298e-06
2.20503e-08
1.98705e-06
4.54645e-08
2.04095e-06
7.09363e-08
2.1194e-06
9.67229e-08
2.22593e-06
1.22568e-07
2.36439e-06
1.47479e-07
2.53738e-06
1.73028e-07
2.02222e-07
2.74593e-06
2.30153e-06
5.51943e-08
2.31661e-06
1.34347e-07
2.3377e-06
1.60364e-07
2.3592e-06
1.40158e-07
2.37619e-06
9.60641e-08
2.38645e-06
5.04351e-08
2.39092e-06
1.6522e-08
2.39339e-06
-2.64018e-09
2.3993e-06
-1.00278e-08
2.41468e-06
-1.03866e-08
2.44458e-06
-7.84974e-09
2.49524e-06
-5.19229e-09
2.57067e-06
-4.49661e-09
2.67454e-06
-7.14471e-09
2.81102e-06
-1.39181e-08
2.98322e-06
-2.47211e-08
3.19396e-06
-3.77093e-08
-4.8948e-08
3.44513e-06
1.68774e-06
4.85256e-08
1.7048e-06
1.17283e-07
1.72665e-06
1.38516e-07
1.74764e-06
1.19173e-07
1.76401e-06
7.96862e-08
1.7745e-06
3.99484e-08
1.78017e-06
1.08485e-08
1.78375e-06
-6.21886e-09
1.78891e-06
-1.51823e-08
1.7995e-06
-2.09747e-08
1.81894e-06
-2.72905e-08
1.85002e-06
-3.62768e-08
1.89462e-06
-4.90979e-08
1.95394e-06
-6.64655e-08
2.02884e-06
-8.88126e-08
2.12014e-06
-1.16021e-07
2.2292e-06
-1.46776e-07
-1.77857e-07
2.35811e-06
1.47101e-06
4.09733e-08
1.48961e-06
9.8686e-08
1.51258e-06
1.15543e-07
1.53428e-06
9.74749e-08
1.55149e-06
6.24744e-08
1.56325e-06
2.81836e-08
1.57034e-06
3.76684e-09
1.5747e-06
-1.05876e-08
1.57903e-06
-1.95113e-08
1.58611e-06
-2.80527e-08
1.5983e-06
-3.94769e-08
1.61717e-06
-5.51464e-08
1.64338e-06
-7.53134e-08
1.67679e-06
-9.98725e-08
1.7167e-06
-1.28724e-07
1.76238e-06
-1.617e-07
1.81371e-06
-1.98104e-07
-2.3593e-07
1.87178e-06
1.28179e-06
3.31996e-08
1.30058e-06
7.98923e-08
1.32335e-06
9.27688e-08
1.34479e-06
7.60441e-08
1.36213e-06
4.51254e-08
1.37452e-06
1.57986e-08
1.38229e-06
-4.00068e-09
1.38671e-06
-1.50094e-08
1.38961e-06
-2.24177e-08
1.39292e-06
-3.13601e-08
1.39816e-06
-4.47118e-08
1.40613e-06
-6.31189e-08
1.41682e-06
-8.60065e-08
1.42948e-06
-1.12533e-07
1.44286e-06
-1.42105e-07
1.45561e-06
-1.7445e-07
1.46683e-06
-2.09322e-07
-2.45815e-07
1.47672e-06
1.11659e-06
2.57029e-08
1.13483e-06
6.16499e-08
1.15671e-06
7.08921e-08
1.17728e-06
5.54772e-08
1.19412e-06
2.82848e-08
1.20629e-06
3.62885e-09
1.21385e-06
-1.15597e-08
1.21763e-06
-1.87991e-08
1.21893e-06
-2.371e-08
1.21899e-06
-3.14188e-08
1.21869e-06
-4.44137e-08
1.21831e-06
-6.27382e-08
1.21748e-06
-8.51824e-08
1.21533e-06
-1.10378e-07
1.21062e-06
-1.37399e-07
1.20207e-06
-1.659e-07
1.18868e-06
-1.95925e-07
-2.27342e-07
1.1702e-06
9.72333e-07
1.88911e-08
9.89629e-07
4.43537e-08
1.01029e-06
5.02286e-08
1.02962e-06
3.61529e-08
1.04531e-06
1.25904e-08
1.05635e-06
-7.41397e-09
1.06276e-06
-1.79655e-08
1.06529e-06
-2.13329e-08
1.06496e-06
-2.33778e-08
1.06255e-06
-2.90083e-08
1.05838e-06
-4.02464e-08
1.05228e-06
-5.6639e-08
1.04369e-06
-7.65862e-08
1.03179e-06
-9.84777e-08
1.01566e-06
-1.21275e-07
9.94399e-07
-1.44636e-07
9.6725e-07
-1.68776e-07
-1.94019e-07
9.33926e-07
8.46343e-07
1.30838e-08
8.62509e-07
2.81873e-08
8.81823e-07
3.09143e-08
8.99585e-07
1.83906e-08
9.13467e-07
-1.29133e-09
9.22441e-07
-1.63878e-08
9.26785e-07
-2.23095e-08
9.27522e-07
-2.20695e-08
9.25618e-07
-2.14742e-08
9.21498e-07
-2.48887e-08
9.14977e-07
-3.37252e-08
9.05464e-07
-4.71265e-08
8.92243e-07
-6.33645e-08
8.74657e-07
-8.08918e-08
8.52165e-07
-9.87827e-08
8.243e-07
-1.16772e-07
7.90659e-07
-1.35134e-07
-1.54384e-07
7.51024e-07
7.36093e-07
8.71945e-09
7.51245e-07
1.30347e-08
7.69085e-07
1.30743e-08
7.84853e-07
2.62318e-09
7.96137e-07
-1.2575e-08
8.02089e-07
-2.23404e-08
8.03583e-07
-2.38035e-08
8.02138e-07
-2.06241e-08
7.98778e-07
-1.81144e-08
7.93594e-07
-1.97042e-08
7.85926e-07
-2.60572e-08
7.74825e-07
-3.60256e-08
7.59469e-07
-4.8009e-08
7.39367e-07
-6.07898e-08
7.14317e-07
-7.37324e-08
6.84231e-07
-8.66852e-08
6.48978e-07
-9.98815e-08
-1.13809e-07
6.08402e-07
6.38778e-07
6.94803e-09
6.53725e-07
-1.91268e-09
6.69721e-07
-2.92164e-09
6.82728e-07
-1.03839e-08
6.90382e-07
-2.02287e-08
6.92366e-07
-2.4324e-08
6.90452e-07
-2.189e-08
6.86719e-07
-1.68907e-08
6.8216e-07
-1.35553e-08
6.76465e-07
-1.40096e-08
6.68547e-07
-1.81393e-08
6.57215e-07
-2.46933e-08
6.41634e-07
-3.24282e-08
6.21468e-07
-4.06236e-08
5.96746e-07
-4.90105e-08
5.67608e-07
-5.75474e-08
5.34076e-07
-6.63494e-08
-7.57278e-08
4.95995e-07
5.51443e-07
1.00518e-08
5.68239e-07
-1.8709e-08
5.80631e-07
-1.53133e-08
5.89344e-07
-1.90974e-08
5.91901e-07
-2.27852e-08
5.89006e-07
-2.14294e-08
5.83519e-07
-1.64032e-08
5.77829e-07
-1.12e-08
5.72577e-07
-8.30344e-09
5.66921e-07
-8.35388e-09
5.59438e-07
-1.06565e-08
5.48892e-07
-1.41475e-08
5.34577e-07
-1.81129e-08
5.16296e-07
-2.23423e-08
4.94157e-07
-2.68719e-08
4.68337e-07
-3.17273e-08
4.38878e-07
-3.68903e-08
-4.24435e-08
4.05594e-07
4.83491e-07
9.32112e-09
4.91934e-07
-2.7152e-08
4.96814e-07
-2.01929e-08
4.96642e-07
-1.89259e-08
4.91412e-07
-1.75548e-08
4.82861e-07
-1.28782e-08
4.74373e-07
-7.915e-09
4.67745e-07
-4.57262e-09
4.62677e-07
-3.23532e-09
4.57706e-07
-3.38291e-09
4.5131e-07
-4.26058e-09
4.42502e-07
-5.33923e-09
4.30863e-07
-6.47352e-09
4.16301e-07
-7.78076e-09
3.98831e-07
-9.40171e-09
3.78461e-07
-1.13572e-08
3.55135e-07
-1.35643e-08
-1.59573e-08
3.28649e-07
4.29589e-07
4.02437e-07
3.82244e-07
3.63318e-07
3.45763e-07
3.32885e-07
3.2497e-07
3.20397e-07
3.17162e-07
3.13779e-07
3.09518e-07
3.04179e-07
2.97706e-07
2.89925e-07
2.80523e-07
2.69166e-07
2.55602e-07
2.39645e-07
2.43526e-07
-2.43526e-07
5.59772e-07
-3.16245e-07
8.39915e-07
-2.80143e-07
1.0594e-06
-2.19483e-07
1.21453e-06
-1.55131e-07
1.30671e-06
-9.21845e-08
1.33975e-06
-3.30367e-08
1.31582e-06
2.39316e-08
1.23792e-06
7.78973e-08
1.1207e-06
1.17216e-07
9.7898e-07
1.41724e-07
8.26046e-07
1.52934e-07
6.67734e-07
1.58312e-07
5.02129e-07
1.65605e-07
3.22382e-07
1.79747e-07
1.19068e-07
2.03314e-07
-1.17784e-07
2.36852e-07
-3.93378e-07
2.75594e-07
-7.03302e-07
3.09924e-07
-1.03778e-06
3.34477e-07
-1.38573e-06
3.47951e-07
-1.7365e-06
3.50775e-07
-2.08077e-06
3.44267e-07
-2.41095e-06
3.30174e-07
-2.72131e-06
3.10363e-07
-3.00793e-06
2.8662e-07
-3.26842e-06
2.6049e-07
-3.50168e-06
2.33263e-07
-3.70763e-06
2.05951e-07
-3.88691e-06
1.79278e-07
-4.04062e-06
1.53713e-07
-4.17014e-06
1.29522e-07
-4.27696e-06
1.06819e-07
-4.36257e-06
8.56096e-08
-4.42841e-06
6.58362e-08
-4.47581e-06
4.73986e-08
-4.50603e-06
3.02194e-08
-4.52035e-06
1.43216e-08
-4.5205e-06
1.54407e-10
-4.50907e-06
-1.1437e-08
-4.48722e-06
-2.18474e-08
-4.45602e-06
-3.12031e-08
-4.41622e-06
-3.97923e-08
-4.36846e-06
-4.77597e-08
-4.31329e-06
-5.51745e-08
-4.25122e-06
-6.20646e-08
-4.18279e-06
-6.84376e-08
-4.1085e-06
-7.42901e-08
-4.02888e-06
-7.96146e-08
-3.94448e-06
-8.4402e-08
-3.85584e-06
-8.86442e-08
-3.7635e-06
-9.2335e-08
-3.66803e-06
-9.54716e-08
-3.56998e-06
-9.8054e-08
-3.46989e-06
-1.00086e-07
-3.36831e-06
-1.01577e-07
-3.26578e-06
-1.02537e-07
-3.16279e-06
-1.02982e-07
-3.05986e-06
-1.02931e-07
-2.95746e-06
-1.02406e-07
-2.85602e-06
-1.01433e-07
-2.75599e-06
-1.00038e-07
-2.65773e-06
-9.82525e-08
-2.56163e-06
-9.61065e-08
-2.46799e-06
-9.3633e-08
-2.37713e-06
-9.08652e-08
-2.28929e-06
-8.7837e-08
-2.20471e-06
-8.4582e-08
-2.12358e-06
-8.11336e-08
-2.04605e-06
-7.75244e-08
-1.97227e-06
-7.37859e-08
-1.90232e-06
-6.9948e-08
-1.83628e-06
-6.60393e-08
-1.77419e-06
-6.20859e-08
-1.71608e-06
-5.81121e-08
-1.66194e-06
-5.41391e-08
-1.61176e-06
-5.01855e-08
-1.56549e-06
-4.62667e-08
-1.52309e-06
-4.23952e-08
-1.48451e-06
-3.85809e-08
-1.44968e-06
-3.48324e-08
-1.41852e-06
-3.11579e-08
-1.39095e-06
-2.75683e-08
-1.36687e-06
-2.40791e-08
-1.34616e-06
-2.07116e-08
-1.32867e-06
-1.7493e-08
-1.31422e-06
-1.44496e-08
-1.30262e-06
-1.1599e-08
-1.29368e-06
-8.94219e-09
-1.28721e-06
-6.46929e-09
-1.28305e-06
-4.16473e-09
-1.28111e-06
-1.93478e-09
-1.2815e-06
3.92395e-10
-1.28403e-06
2.52265e-09
-1.28876e-06
4.72945e-09
-1.29557e-06
6.80994e-09
-1.30424e-06
8.67941e-09
-1.31453e-06
1.02859e-08
-1.32612e-06
1.15934e-08
-1.3387e-06
1.25761e-08
-1.35191e-06
1.32151e-08
-1.36541e-06
1.34975e-08
-1.37883e-06
1.34149e-08
-1.39179e-06
1.29629e-08
-1.40393e-06
1.21426e-08
-1.4149e-06
1.09638e-08
-1.42434e-06
9.44823e-09
-1.43197e-06
7.62999e-09
-1.4375e-06
5.52947e-09
-1.44071e-06
3.20443e-09
-1.44142e-06
7.14437e-10
-1.43996e-06
-1.46417e-09
-1.43657e-06
-3.39e-09
-1.43137e-06
-5.1942e-09
-1.42445e-06
-6.92667e-09
-1.41585e-06
-8.59877e-09
-1.40564e-06
-1.02089e-08
-1.39389e-06
-1.17499e-08
-1.38068e-06
-1.32142e-08
-1.36608e-06
-1.45952e-08
-1.35019e-06
-1.58873e-08
-1.33311e-06
-1.70867e-08
-1.31492e-06
-1.8191e-08
-1.29572e-06
-1.91995e-08
-1.2756e-06
-2.01136e-08
-1.25467e-06
-2.09364e-08
-1.23299e-06
-2.16734e-08
-1.21066e-06
-2.23323e-08
-1.18774e-06
-2.29228e-08
-1.16428e-06
-2.34572e-08
-1.14033e-06
-2.39496e-08
-1.11592e-06
-2.44162e-08
-1.09104e-06
-2.48744e-08
-1.0657e-06
-2.5343e-08
-1.03986e-06
-2.5841e-08
-1.01347e-06
-2.63873e-08
-9.86469e-07
-2.7e-08
-9.58774e-07
-2.76955e-08
-9.30286e-07
-2.84881e-08
-9.00897e-07
-2.93889e-08
-8.70491e-07
-3.0406e-08
-8.38947e-07
-3.15434e-08
-8.06146e-07
-3.28011e-08
-7.71971e-07
-3.41752e-08
-7.36314e-07
-3.56575e-08
-6.99078e-07
-3.72359e-08
-6.60183e-07
-3.88947e-08
-6.19568e-07
-4.06148e-08
-5.77194e-07
-4.23743e-08
-5.33045e-07
-4.41489e-08
-4.87132e-07
-4.59129e-08
-4.39491e-07
-4.76408e-08
-3.90183e-07
-4.93079e-08
-3.39293e-07
-5.08901e-08
-2.8693e-07
-5.23633e-08
-2.33228e-07
-5.37024e-08
-1.78353e-07
-5.48743e-08
-1.22521e-07
-5.58322e-08
-6.59959e-08
-5.65253e-08
-9.09225e-09
-5.69036e-08
4.78581e-08
-5.69503e-08
1.04509e-07
-5.66511e-08
1.60489e-07
-5.59795e-08
2.15431e-07
-5.49421e-08
2.68977e-07
-5.35459e-08
3.20759e-07
-5.17819e-08
3.7038e-07
-4.9621e-08
4.17397e-07
-4.70173e-08
4.61309e-07
-4.3912e-08
5.01551e-07
-4.0242e-08
5.3751e-07
-3.59593e-08
5.68563e-07
-3.10531e-08
5.94137e-07
-2.55736e-08
6.14073e-07
-1.99357e-08
6.26689e-07
-1.26168e-08
6.30266e-07
-3.57616e-09
6.2476e-07
5.50569e-09
6.09174e-07
1.5586e-08
5.78848e-07
3.0326e-08
4.60029e-08
5.32845e-07
2.92863e-07
-5.36389e-07
5.03691e-07
-5.27074e-07
6.33318e-07
-4.0977e-07
7.0668e-07
-2.92845e-07
7.35001e-07
-1.83451e-07
7.24486e-07
-8.16694e-08
6.78762e-07
1.26867e-08
6.02028e-07
1.00666e-07
4.97283e-07
1.82642e-07
3.58014e-07
2.56485e-07
1.79684e-07
3.20055e-07
-4.15063e-08
3.74124e-07
-3.0643e-07
4.23236e-07
-6.13795e-07
4.7297e-07
-9.59093e-07
5.25045e-07
-1.33229e-06
5.76507e-07
-1.71724e-06
6.21807e-07
-2.09667e-06
6.55025e-07
-2.45864e-06
6.71893e-07
-2.79529e-06
6.71123e-07
-3.10131e-06
6.53974e-07
-3.37376e-06
6.23228e-07
-3.61184e-06
5.82342e-07
-3.81649e-06
5.34821e-07
-3.98994e-06
4.83815e-07
-4.13521e-06
4.31893e-07
-4.25568e-06
3.80962e-07
-4.35473e-06
3.32305e-07
-4.43545e-06
2.86671e-07
-4.50056e-06
2.44395e-07
-4.55236e-06
2.05511e-07
-4.5927e-06
1.69861e-07
-4.62306e-06
1.37179e-07
-4.64461e-06
1.07163e-07
-4.65829e-06
7.95171e-08
-4.66487e-06
5.39779e-08
-4.66499e-06
3.03332e-08
-4.65914e-06
8.47313e-09
-4.64686e-06
-1.21258e-08
-4.62684e-06
-3.14567e-08
-4.5988e-06
-4.98835e-08
-4.56264e-06
-6.73615e-08
-4.51855e-06
-8.38858e-08
-4.46685e-06
-9.9461e-08
-4.40794e-06
-1.14083e-07
-4.34227e-06
-1.27739e-07
-4.2703e-06
-1.40407e-07
-4.19253e-06
-1.52062e-07
-4.10946e-06
-1.62678e-07
-4.02163e-06
-1.72231e-07
-3.92958e-06
-1.80701e-07
-3.83384e-06
-1.88074e-07
-3.73497e-06
-1.94341e-07
-3.63352e-06
-1.99502e-07
-3.53004e-06
-2.03562e-07
-3.42508e-06
-2.06538e-07
-3.31917e-06
-2.08451e-07
-3.21282e-06
-2.0933e-07
-3.10654e-06
-2.09214e-07
-3.0008e-06
-2.08144e-07
-2.89607e-06
-2.06169e-07
-2.79276e-06
-2.03343e-07
-2.69129e-06
-1.99724e-07
-2.59202e-06
-1.95373e-07
-2.4953e-06
-1.90352e-07
-2.40144e-06
-1.84727e-07
-2.31072e-06
-1.78562e-07
-2.22338e-06
-1.71923e-07
-2.13964e-06
-1.64874e-07
-2.05968e-06
-1.57478e-07
-1.98367e-06
-1.49797e-07
-1.91173e-06
-1.41889e-07
-1.84396e-06
-1.3381e-07
-1.78043e-06
-1.25614e-07
-1.72119e-06
-1.17349e-07
-1.66627e-06
-1.09063e-07
-1.61566e-06
-1.00799e-07
-1.56933e-06
-9.25949e-08
-1.52724e-06
-8.44877e-08
-1.48931e-06
-7.65098e-08
-1.45545e-06
-6.86905e-08
-1.42555e-06
-6.10569e-08
-1.39948e-06
-5.36345e-08
-1.37711e-06
-4.6449e-08
-1.3583e-06
-3.95266e-08
-1.3429e-06
-3.28927e-08
-1.33078e-06
-2.65684e-08
-1.32181e-06
-2.05651e-08
-1.31588e-06
-1.4881e-08
-1.31284e-06
-9.50202e-09
-1.31261e-06
-4.39762e-09
-1.31502e-06
4.70152e-10
-1.31973e-06
5.10753e-09
-1.32658e-06
9.37363e-09
-1.33509e-06
1.32365e-08
-1.34492e-06
1.66433e-08
-1.35578e-06
1.95402e-08
-1.36738e-06
2.18828e-08
-1.37942e-06
2.36383e-08
-1.39163e-06
2.47853e-08
-1.40373e-06
2.53139e-08
-1.41546e-06
2.52249e-08
-1.42657e-06
2.45297e-08
-1.43686e-06
2.32509e-08
-1.44614e-06
2.14242e-08
-1.45428e-06
1.91004e-08
-1.46118e-06
1.63474e-08
-1.4668e-06
1.32485e-08
-1.47117e-06
9.89849e-09
-1.47437e-06
6.41165e-09
-1.47657e-06
2.90999e-09
-1.47753e-06
-5.01962e-10
-1.47705e-06
-3.87398e-09
-1.47505e-06
-7.19311e-09
-1.47152e-06
-1.04564e-08
-1.46647e-06
-1.36468e-08
-1.45993e-06
-1.67479e-08
-1.45194e-06
-1.9743e-08
-1.44254e-06
-2.2617e-08
-1.43177e-06
-2.53571e-08
-1.41971e-06
-2.79527e-08
-1.4064e-06
-3.03962e-08
-1.39191e-06
-3.26827e-08
-1.3763e-06
-3.48102e-08
-1.35963e-06
-3.67804e-08
-1.34197e-06
-3.85979e-08
-1.32337e-06
-4.02714e-08
-1.30389e-06
-4.18134e-08
-1.28357e-06
-4.32403e-08
-1.26246e-06
-4.45725e-08
-1.24057e-06
-4.58342e-08
-1.21794e-06
-4.70529e-08
-1.19455e-06
-4.82589e-08
-1.17041e-06
-4.94847e-08
-1.14549e-06
-5.07636e-08
-1.11975e-06
-5.21291e-08
-1.09313e-06
-5.36131e-08
-1.06558e-06
-5.52453e-08
-1.03702e-06
-5.7051e-08
-1.00736e-06
-5.9051e-08
-9.76504e-07
-6.12598e-08
-9.44362e-07
-6.3685e-08
-9.10836e-07
-6.6327e-08
-8.75833e-07
-6.91787e-08
-8.39265e-07
-7.22253e-08
-8.01056e-07
-7.54446e-08
-7.61143e-07
-7.88078e-08
-7.19478e-07
-8.22796e-08
-6.76033e-07
-8.58196e-08
-6.30799e-07
-8.93831e-08
-5.83789e-07
-9.29228e-08
-5.35039e-07
-9.63905e-08
-4.84609e-07
-9.97383e-08
-4.32581e-07
-1.02918e-07
-3.79062e-07
-1.05882e-07
-3.24184e-07
-1.0858e-07
-2.68103e-07
-1.10955e-07
-2.10996e-07
-1.12939e-07
-1.5306e-07
-1.14461e-07
-9.45197e-08
-1.15444e-07
-3.56428e-08
-1.15827e-07
2.32725e-08
-1.15566e-07
8.19215e-08
-1.14628e-07
1.39983e-07
-1.13004e-07
1.97121e-07
-1.10683e-07
2.52979e-07
-1.0764e-07
3.07177e-07
-1.03819e-07
3.59298e-07
-9.91378e-08
4.08881e-07
-9.34954e-08
4.55425e-07
-8.67862e-08
4.98396e-07
-7.89297e-08
5.37247e-07
-6.99042e-08
5.71448e-07
-5.97751e-08
6.00178e-07
-4.86652e-08
6.23257e-07
-3.56955e-08
6.40744e-07
-2.10637e-08
6.51647e-07
-5.39768e-09
6.538e-07
1.34334e-08
6.45597e-07
3.85295e-08
6.45614e-08
6.27038e-07
1.67298e-07
-7.03687e-07
2.03765e-07
-5.6354e-07
1.9547e-07
-4.01475e-07
1.57948e-07
-2.55322e-07
9.39454e-08
-1.19449e-07
2.72642e-09
9.54963e-09
-1.17557e-07
1.3297e-07
-2.68602e-07
2.51711e-07
-4.51159e-07
3.65199e-07
-6.66649e-07
4.71975e-07
-9.16808e-07
5.70214e-07
-1.20177e-06
6.59086e-07
-1.51711e-06
7.3858e-07
-1.85203e-06
8.07889e-07
-2.1912e-06
8.64214e-07
-2.51841e-06
9.03712e-07
-2.82002e-06
9.23418e-07
-3.08749e-06
9.22497e-07
-3.31799e-06
9.0239e-07
-3.51302e-06
8.66158e-07
-3.6767e-06
8.1765e-07
-3.81428e-06
7.60808e-07
-3.93114e-06
6.99201e-07
-4.03208e-06
6.35765e-07
-4.12098e-06
5.72715e-07
-4.20067e-06
5.11579e-07
-4.273e-06
4.53298e-07
-4.33905e-06
3.9835e-07
-4.39925e-06
3.46879e-07
-4.45366e-06
2.98806e-07
-4.50207e-06
2.53913e-07
-4.54412e-06
2.11913e-07
-4.57944e-06
1.72497e-07
-4.60764e-06
1.35367e-07
-4.62838e-06
1.00252e-07
-4.64131e-06
6.69167e-08
-4.64615e-06
3.51668e-08
-4.6425e-06
4.82989e-09
-4.63035e-06
-2.42757e-08
-4.60959e-06
-5.22244e-08
-4.58045e-06
-7.90188e-08
-4.54318e-06
-1.04629e-07
-4.49806e-06
-1.29007e-07
-4.44542e-06
-1.52108e-07
-4.38562e-06
-1.73879e-07
-4.31909e-06
-1.94267e-07
-4.24628e-06
-2.13217e-07
-4.16767e-06
-2.30677e-07
-4.08375e-06
-2.46596e-07
-3.99505e-06
-2.60931e-07
-3.9021e-06
-2.73648e-07
-3.80546e-06
-2.8472e-07
-3.70566e-06
-2.94134e-07
-3.60328e-06
-3.01886e-07
-3.49886e-06
-3.07986e-07
-3.39294e-06
-3.12454e-07
-3.28607e-06
-3.15324e-07
-3.17876e-06
-3.16639e-07
-3.07152e-06
-3.16454e-07
-2.96483e-06
-3.14833e-07
-2.85915e-06
-3.1185e-07
-2.75491e-06
-3.07584e-07
-2.65251e-06
-3.02121e-07
-2.55233e-06
-2.95552e-07
-2.45471e-06
-2.8797e-07
-2.35997e-06
-2.79471e-07
-2.26838e-06
-2.70153e-07
-2.18019e-06
-2.60111e-07
-2.09562e-06
-2.49441e-07
-2.01486e-06
-2.38237e-07
-1.93807e-06
-2.26588e-07
-1.86538e-06
-2.1458e-07
-1.79689e-06
-2.02297e-07
-1.73269e-06
-1.89816e-07
-1.67283e-06
-1.77211e-07
-1.61734e-06
-1.64551e-07
-1.56624e-06
-1.51901e-07
-1.51951e-06
-1.39322e-07
-1.47713e-06
-1.26872e-07
-1.43904e-06
-1.14604e-07
-1.40516e-06
-1.02569e-07
-1.3754e-06
-9.08169e-08
-1.34964e-06
-7.93926e-08
-1.32775e-06
-6.83395e-08
-1.30958e-06
-5.76974e-08
-1.29497e-06
-4.75013e-08
-1.28376e-06
-3.77783e-08
-1.27578e-06
-2.85462e-08
-1.27085e-06
-1.98124e-08
-1.26877e-06
-1.15774e-08
-1.26933e-06
-3.83406e-09
-1.27227e-06
3.40332e-09
-1.27726e-06
1.00988e-08
-1.28406e-06
1.61715e-08
-1.29238e-06
2.15618e-08
-1.30196e-06
2.62212e-08
-1.31253e-06
3.01056e-08
-1.32382e-06
3.31793e-08
-1.3356e-06
3.54185e-08
-1.34763e-06
3.68125e-08
-1.35968e-06
3.73648e-08
-1.37155e-06
3.70931e-08
-1.38305e-06
3.60298e-08
-1.39402e-06
3.42217e-08
-1.40433e-06
3.17313e-08
-1.41386e-06
2.86373e-08
-1.42255e-06
2.50331e-08
-1.43032e-06
2.10237e-08
-1.43715e-06
1.67196e-08
-1.44296e-06
1.22301e-08
-1.4477e-06
7.64791e-09
-1.45122e-06
3.02091e-09
-1.45346e-06
-1.64028e-09
-1.45435e-06
-6.2989e-09
-1.45389e-06
-1.09199e-08
-1.45206e-06
-1.54717e-08
-1.44889e-06
-1.9926e-08
-1.44437e-06
-2.42575e-08
-1.43854e-06
-2.84442e-08
-1.43143e-06
-3.24679e-08
-1.42307e-06
-3.63142e-08
-1.4135e-06
-3.99723e-08
-1.40274e-06
-4.34352e-08
-1.39085e-06
-4.67004e-08
-1.37786e-06
-4.97693e-08
-1.36381e-06
-5.26482e-08
-1.34874e-06
-5.5348e-08
-1.33267e-06
-5.78848e-08
-1.31563e-06
-6.02798e-08
-1.29764e-06
-6.25594e-08
-1.27872e-06
-6.47547e-08
-1.25887e-06
-6.69016e-08
-1.23809e-06
-6.90394e-08
-1.21636e-06
-7.12104e-08
-1.19367e-06
-7.34584e-08
-1.16997e-06
-7.58272e-08
-1.14523e-06
-7.83592e-08
-1.11938e-06
-8.10936e-08
-1.09236e-06
-8.40644e-08
-1.06412e-06
-8.72993e-08
-1.03456e-06
-9.08178e-08
-1.00361e-06
-9.46303e-08
-9.71201e-07
-9.87375e-08
-9.37251e-07
-1.03129e-07
-9.0169e-07
-1.07786e-07
-8.64459e-07
-1.12676e-07
-8.25507e-07
-1.1776e-07
-7.84797e-07
-1.22989e-07
-7.42309e-07
-1.28308e-07
-6.98038e-07
-1.33654e-07
-6.51999e-07
-1.38961e-07
-6.04228e-07
-1.44162e-07
-5.54779e-07
-1.49187e-07
-5.03731e-07
-1.53967e-07
-4.51182e-07
-1.58431e-07
-3.97255e-07
-1.62508e-07
-3.4209e-07
-1.6612e-07
-2.85847e-07
-1.69183e-07
-2.28701e-07
-1.71607e-07
-1.70846e-07
-1.73299e-07
-1.12502e-07
-1.74172e-07
-5.39131e-08
-1.74155e-07
4.65651e-09
-1.73198e-07
6.29215e-08
-1.71269e-07
1.20571e-07
-1.68333e-07
1.77271e-07
-1.6434e-07
2.32661e-07
-1.59209e-07
2.86352e-07
-1.52829e-07
3.37923e-07
-1.45066e-07
3.86921e-07
-1.35785e-07
4.32872e-07
-1.2488e-07
4.75285e-07
-1.12318e-07
5.13653e-07
-9.81432e-08
5.47404e-07
-8.24167e-08
5.76436e-07
-6.47266e-08
6.00492e-07
-4.51197e-08
6.18546e-07
-2.34521e-08
6.30321e-07
1.65851e-09
6.35709e-07
3.31409e-08
6.52361e-08
6.35035e-07
-3.30765e-08
-6.70611e-07
-1.33513e-07
-4.63103e-07
-2.4597e-07
-2.89018e-07
-3.72514e-07
-1.28779e-07
-5.17899e-07
2.59358e-08
-6.85436e-07
1.77086e-07
-8.77682e-07
3.25216e-07
-1.09489e-06
4.68917e-07
-1.33558e-06
6.05887e-07
-1.59652e-06
7.32919e-07
-1.87276e-06
8.46457e-07
-2.15689e-06
9.43216e-07
-2.43867e-06
1.02036e-06
-2.70628e-06
1.07551e-06
-2.94924e-06
1.10717e-06
-3.16093e-06
1.1154e-06
-3.33962e-06
1.10211e-06
-3.4878e-06
1.07067e-06
-3.61052e-06
1.02512e-06
-3.71389e-06
9.69521e-07
-3.80372e-06
9.07485e-07
-3.88487e-06
8.41958e-07
-3.96086e-06
7.75187e-07
-4.03388e-06
7.08785e-07
-4.105e-06
6.43834e-07
-4.17441e-06
5.80994e-07
-4.24173e-06
5.20619e-07
-4.30622e-06
4.62835e-07
-4.36696e-06
4.0762e-07
-4.42301e-06
3.54856e-07
-4.47347e-06
3.04372e-07
-4.51753e-06
2.55976e-07
-4.55451e-06
2.09476e-07
-4.58384e-06
1.64697e-07
-4.60508e-06
1.2149e-07
-4.61789e-06
7.97359e-08
-4.62208e-06
3.93488e-08
-4.61751e-06
2.63365e-10
-4.60423e-06
-3.75596e-08
-4.58235e-06
-7.41047e-08
-4.55205e-06
-1.09313e-07
-4.51358e-06
-1.43104e-07
-4.4672e-06
-1.75386e-07
-4.41324e-06
-2.06064e-07
-4.35208e-06
-2.3504e-07
-4.28413e-06
-2.62219e-07
-4.20983e-06
-2.8751e-07
-4.12968e-06
-3.10828e-07
-4.04418e-06
-3.32095e-07
-3.95387e-06
-3.51247e-07
-3.85928e-06
-3.68233e-07
-3.76099e-06
-3.83014e-07
-3.65955e-06
-3.95569e-07
-3.55554e-06
-4.05895e-07
-3.44953e-06
-4.14001e-07
-3.34207e-06
-4.19917e-07
-3.2337e-06
-4.23687e-07
-3.12497e-06
-4.25371e-07
-3.01638e-06
-4.25044e-07
-2.90842e-06
-4.22791e-07
-2.80156e-06
-4.18713e-07
-2.69623e-06
-4.12917e-07
-2.59283e-06
-4.05519e-07
-2.49174e-06
-3.96641e-07
-2.3933e-06
-3.86409e-07
-2.29782e-06
-3.74953e-07
-2.20557e-06
-3.62401e-07
-2.1168e-06
-3.48883e-07
-2.03172e-06
-3.34524e-07
-1.9505e-06
-3.19449e-07
-1.87331e-06
-3.03776e-07
-1.80027e-06
-2.8762e-07
-1.73148e-06
-2.71089e-07
-1.66701e-06
-2.54286e-07
-1.60691e-06
-2.37308e-07
-1.55122e-06
-2.20246e-07
-1.49994e-06
-2.03184e-07
-1.45305e-06
-1.86204e-07
-1.41055e-06
-1.69381e-07
-1.37236e-06
-1.52788e-07
-1.33843e-06
-1.36496e-07
-1.30868e-06
-1.20572e-07
-1.28299e-06
-1.05081e-07
-1.26125e-06
-9.00857e-08
-1.2433e-06
-7.56436e-08
-1.22899e-06
-6.18063e-08
-1.21815e-06
-4.86177e-08
-1.21059e-06
-3.61125e-08
-1.20608e-06
-2.43167e-08
-1.20441e-06
-1.32508e-08
-1.20531e-06
-2.93393e-09
-1.20851e-06
6.60327e-09
-1.21373e-06
1.53168e-08
-1.2207e-06
2.31464e-08
-1.22918e-06
3.00391e-08
-1.23891e-06
3.59505e-08
-1.24965e-06
4.08447e-08
-1.26117e-06
4.46957e-08
-1.27324e-06
4.74908e-08
-1.28566e-06
4.92321e-08
-1.29823e-06
4.99372e-08
-1.31078e-06
4.96398e-08
-1.32314e-06
4.83898e-08
-1.33517e-06
4.6253e-08
-1.34675e-06
4.33109e-08
-1.35777e-06
3.96591e-08
-1.36814e-06
3.54049e-08
-1.37778e-06
3.06617e-08
-1.3866e-06
2.55424e-08
-1.39452e-06
2.01514e-08
-1.40145e-06
1.45729e-08
-1.40729e-06
8.86283e-09