/*--------------------------------*- C++ -*----------------------------------*\
  =========                 |
  \\      /  F ield         | OpenFOAM: The Open Source CFD Toolbox
   \\    /   O peration     | Website:  https://openfoam.org
    \\  /    A nd           | Version:  9
     \\/     M anipulation  |
\*---------------------------------------------------------------------------*/
FoamFile
{
    format      ascii;
    class       volVectorField;
    location    "0.22";
    object      U;
}
// * * * * * * * * * * * * * * * * * * * * * * * * * * * * * * * * * * * * * //

dimensions      [0 1 -1 0 0 0 0];

internalField   nonuniform List<vector> 
12225
(
(0.946685 -0.26497 0)
(0.891284 -0.0570327 0)
(0.752419 0.00859583 0)
(0.620956 0.0146781 0)
(0.541006 0.0094975 0)
(0.497279 0.00531744 0)
(0.471095 0.00371136 0)
(0.451284 0.00412921 0)
(0.428636 0.00610913 0)
(0.395697 0.00911117 0)
(0.348666 0.012248 0)
(0.288496 0.0144034 0)
(0.22158 0.0144836 0)
(0.15742 0.0117062 0)
(0.113217 0.00412578 0)
(0.10287 -0.0136895 0)
(0.228168 -0.0666287 0)
(0.284761 0.033923 0)
(1.01862 0.0925083 0)
(0.986048 0.0772187 0)
(0.921784 0.0457799 0)
(0.837188 0.033982 0)
(0.764131 0.0240604 0)
(0.71416 0.0151133 0)
(0.6842 0.00973634 0)
(0.666714 0.00857789 0)
(0.652182 0.0114767 0)
(0.631127 0.0177244 0)
(0.595895 0.0257806 0)
(0.542152 0.0332401 0)
(0.471211 0.037142 0)
(0.390422 0.0344193 0)
(0.318617 0.0202258 0)
(0.269528 -0.0199482 0)
(0.317485 -0.0984058 0)
(0.218073 0.0847321 0)
(0.997879 0.0153901 0)
(0.986362 0.0443848 0)
(0.954673 0.0525615 0)
(0.897611 0.0492769 0)
(0.839897 0.0379049 0)
(0.796847 0.0249006 0)
(0.77075 0.0155695 0)
(0.757247 0.0121249 0)
(0.748676 0.0151222 0)
(0.736717 0.024065 0)
(0.713937 0.0372146 0)
(0.674602 0.0513604 0)
(0.616346 0.0618856 0)
(0.541293 0.0630687 0)
(0.461862 0.0469102 0)
(0.385636 -0.00400579 0)
(0.368333 -0.0895267 0)
(0.163991 0.12657 0)
(0.998659 0.00895433 0)
(0.989207 0.0458549 0)
(0.966256 0.0626217 0)
(0.923216 0.0624216 0)
(0.87783 0.0502799 0)
(0.842865 0.0339835 0)
(0.821794 0.020883 0)
(0.812144 0.0149361 0)
(0.807977 0.0175812 0)
(0.802368 0.0286312 0)
(0.788819 0.0463446 0)
(0.761651 0.067163 0)
(0.716793 0.0855004 0)
(0.652341 0.0936245 0)
(0.573496 0.0808549 0)
(0.480296 0.0287743 0)
(0.414431 -0.0505244 0)
(0.150727 0.168675 0)
(0.999423 0.0121945 0)
(0.990174 0.051199 0)
(0.970532 0.0717072 0)
(0.936456 0.0736953 0)
(0.900711 0.0609913 0)
(0.873105 0.0418419 0)
(0.856946 0.0252266 0)
(0.850752 0.0167014 0)
(0.849911 0.0186179 0)
(0.848756 0.0311485 0)
(0.841789 0.0526613 0)
(0.82387 0.079589 0)
(0.790353 0.106091 0)
(0.736855 0.12352 0)
(0.662664 0.119771 0)
(0.561326 0.0771403 0)
(0.461944 0.0147549 0)
(0.174174 0.21844 0)
(0.999303 0.0149971 0)
(0.989859 0.0554345 0)
(0.972052 0.0793718 0)
(0.944342 0.0833064 0)
(0.916169 0.0700085 0)
(0.894884 0.0482987 0)
(0.883158 0.0284708 0)
(0.879945 0.0174428 0)
(0.881595 0.0184214 0)
(0.883478 0.0319511 0)
(0.881002 0.0565755 0)
(0.869677 0.0889286 0)
(0.844891 0.123441 0)
(0.801104 0.151584 0)
(0.733689 0.16125 0)
(0.631905 0.136506 0)
(0.513387 0.0979133 0)
(0.232703 0.279769 0)
(0.998994 0.0169472 0)
(0.989259 0.0592634 0)
(0.972677 0.0862349 0)
(0.949719 0.0915789 0)
(0.927571 0.0774896 0)
(0.911607 0.053396 0)
(0.903719 0.0306419 0)
(0.902984 0.017273 0)
(0.906431 0.0172531 0)
(0.910269 0.0314849 0)
(0.910676 0.0587191 0)
(0.903799 0.0959048 0)
(0.885361 0.138056 0)
(0.849616 0.177495 0)
(0.789981 0.203255 0)
(0.693851 0.201831 0)
(0.569386 0.1914 0)
(0.316327 0.352739 0)
(0.998803 0.0189052 0)
(0.988824 0.0633364 0)
(0.973176 0.0926472 0)
(0.953922 0.0987489 0)
(0.936642 0.083603 0)
(0.925112 0.0572252 0)
(0.920445 0.0318081 0)
(0.921677 0.0163132 0)
(0.926321 0.015345 0)
(0.931268 0.0301292 0)
(0.933359 0.0596326 0)
(0.929335 0.101172 0)
(0.915405 0.150489 0)
(0.886211 0.201149 0)
(0.834728 0.244023 0)
(0.748541 0.2684 0)
(0.629042 0.288418 0)
(0.411979 0.434805 0)
(0.998747 0.0210864 0)
(0.988702 0.067736 0)
(0.973901 0.0987205 0)
(0.957651 0.104965 0)
(0.944352 0.0884834 0)
(0.936478 0.0598835 0)
(0.934429 0.0320588 0)
(0.937122 0.0146939 0)
(0.942432 0.0129082 0)
(0.947823 0.0281981 0)
(0.950729 0.0597366 0)
(0.948466 0.105216 0)
(0.93781 0.161138 0)
(0.914115 0.222422 0)
(0.870895 0.282033 0)
(0.79727 0.332112 0)
(0.690806 0.382767 0)
(0.511297 0.521975 0)
(0.998779 0.0234047 0)
(0.988919 0.0723636 0)
(0.975021 0.104481 0)
(0.961297 0.110322 0)
(0.951271 0.0922387 0)
(0.946366 0.0614711 0)
(0.946354 0.0315004 0)
(0.950016 0.0125573 0)
(0.955518 0.0101407 0)
(0.960833 0.0259499 0)
(0.963957 0.0593343 0)
(0.962779 0.108341 0)
(0.9547 0.170181 0)
(0.935941 0.241059 0)
(0.901071 0.315935 0)
(0.841386 0.389553 0)
(0.753167 0.468887 0)
(0.611123 0.608945 0)
(0.998859 0.025778 0)
(0.989448 0.0771226 0)
(0.976594 0.109941 0)
(0.965071 0.114909 0)
(0.957743 0.0949945 0)
(0.955191 0.0621312 0)
(0.956664 0.030297 0)
(0.960824 0.0101009 0)
(0.966099 0.0072763 0)
(0.970941 0.0236398 0)
(0.973901 0.058669 0)
(0.973456 0.110717 0)
(0.967673 0.177619 0)
(0.953696 0.256679 0)
(0.927356 0.344541 0)
(0.882229 0.438035 0)
(0.81496 0.542009 0)
(0.709881 0.688907 0)
(0.998955 0.0279187 0)
(0.990179 0.0814696 0)
(0.978459 0.114624 0)
(0.968768 0.118445 0)
(0.963493 0.0966958 0)
(0.962608 0.0620098 0)
(0.964981 0.0287498 0)
(0.96921 0.00772205 0)
(0.973962 0.00473564 0)
(0.978122 0.0216196 0)
(0.980757 0.0579079 0)
(0.980897 0.112176 0)
(0.977245 0.182731 0)
(0.967793 0.267689 0)
(0.949553 0.364883 0)
(0.918049 0.472486 0)
(0.870999 0.594086 0)
(0.799254 0.749144 0)
(0.999047 0.0300169 0)
(0.991056 0.0857081 0)
(0.980626 0.118968 0)
(0.972655 0.121425 0)
(0.969125 0.097786 0)
(0.969532 0.0614212 0)
(0.97245 0.0270145 0)
(0.976458 0.00544445 0)
(0.980484 0.00247114 0)
(0.983846 0.0198461 0)
(0.986119 0.0570969 0)
(0.986888 0.112955 0)
(0.985483 0.186092 0)
(0.980701 0.275239 0)
(0.970638 0.379068 0)
(0.952477 0.496546 0)
(0.92497 0.630124 0)
(0.883746 0.791191 0)
(0.999147 0.0322375 0)
(0.992223 0.0902458 0)
(0.983474 0.123355 0)
(0.977418 0.124036 0)
(0.975591 0.0982312 0)
(0.977067 0.0601788 0)
(0.980199 0.0248448 0)
(0.983635 0.00302688 0)
(0.986636 0.000259671 0)
(0.989029 0.0180784 0)
(0.990966 0.055913 0)
(0.992657 0.112585 0)
(0.994131 0.187055 0)
(0.995053 0.278546 0)
(0.994615 0.386359 0)
(0.991483 0.509922 0)
(0.985205 0.650453 0)
(0.97427 0.813742 0)
(0.999261 0.0344883 0)
(0.993705 0.0948018 0)
(0.987095 0.127436 0)
(0.983219 0.125967 0)
(0.983056 0.0978565 0)
(0.985321 0.0583077 0)
(0.988274 0.0224726 0)
(0.990759 0.000840488 0)
(0.992481 -0.00152919 0)
(0.993848 0.0164871 0)
(0.99565 0.0540907 0)
(0.998759 0.110086 0)
(1.00395 0.183593 0)
(1.01177 0.274142 0)
(1.02251 0.381436 0)
(1.03609 0.505163 0)
(1.05266 0.645613 0)
(1.07173 0.805006 0)
(0.999404 0.0365661 0)
(0.99556 0.0988055 0)
(0.99163 0.130536 0)
(0.990322 0.126674 0)
(0.991872 0.0964006 0)
(0.994703 0.0558824 0)
(0.997149 0.0202523 0)
(0.998431 -0.000641011 0)
(0.998826 -0.00253944 0)
(0.999395 0.0150264 0)
(1.00158 0.0508595 0)
(1.0069 0.10361 0)
(1.01685 0.172341 0)
(1.03285 0.256635 0)
(1.05619 0.356337 0)
(1.08793 0.471352 0)
(1.12882 0.601815 0)
(1.17865 0.748555 0)
(0.999597 0.0381219 0)
(0.997904 0.101293 0)
(0.997309 0.131506 0)
(0.99912 0.125239 0)
(1.00262 0.0934216 0)
(1.00602 0.0529629 0)
(1.00793 0.0185776 0)
(1.00814 -0.000989382 0)
(1.00762 -0.00266284 0)
(1.00812 0.0131214 0)
(1.01169 0.0446008 0)
(1.02041 0.0901174 0)
(1.03632 0.148399 0)
(1.06156 0.218703 0)
(1.09822 0.30069 0)
(1.14822 0.394376 0)
(1.213 0.500494 0)
(1.2929 0.620746 0)
(0.999881 0.038532 0)
(1.0009 0.100656 0)
(1.00438 0.128423 0)
(1.00998 0.120072 0)
(1.0159 0.0879857 0)
(1.02027 0.0492042 0)
(1.02217 0.0173294 0)
(1.02211 -0.000572068 0)
(1.02177 -0.00297864 0)
(1.02348 0.00859369 0)
(1.02987 0.0317203 0)
(1.04331 0.0641145 0)
(1.06601 0.104075 0)
(1.10047 0.150251 0)
(1.14898 0.201724 0)
(1.2136 0.258486 0)
(1.2959 0.322205 0)
(1.3973 0.39668 0)
(1.00032 0.036761 0)
(1.00465 0.0943846 0)
(1.01286 0.118327 0)
(1.02282 0.108587 0)
(1.03172 0.0781431 0)
(1.03778 0.0430754 0)
(1.04072 0.0149222 0)
(1.0417 -0.00155485 0)
(1.04288 -0.0067094 0)
(1.04686 -0.00323194 0)
(1.05611 0.0058296 0)
(1.07308 0.0177834 0)
(1.09998 0.030503 0)
(1.13855 0.0421396 0)
(1.19044 0.0512899 0)
(1.2573 0.0577588 0)
(1.34017 0.0636433 0)
(1.44113 0.0741033 0)
(1.00071 0.0329072 0)
(1.0079 0.0833727 0)
(1.0201 0.103115 0)
(1.03369 0.0931491 0)
(1.04531 0.0657962 0)
(1.05335 0.0353842 0)
(1.05787 0.0113125 0)
(1.06012 -0.00364651 0)
(1.06214 -0.0112982 0)
(1.06628 -0.0151005 0)
(1.07474 -0.0182812 0)
(1.08941 -0.023251 0)
(1.11166 -0.0319649 0)
(1.1424 -0.046094 0)
(1.1822 -0.0670268 0)
(1.23152 -0.0953915 0)
(1.29066 -0.129934 0)
(1.36167 -0.166307 0)
(1.00096 0.0283961 0)
(1.01018 0.0714683 0)
(1.02521 0.0875459 0)
(1.04142 0.077768 0)
(1.05519 0.0532532 0)
(1.06512 0.0267489 0)
(1.07132 0.0061647 0)
(1.07482 -0.0070054 0)
(1.07732 -0.0154912 0)
(1.08079 -0.0231871 0)
(1.08704 -0.0332574 0)
(1.09747 -0.047706 0)
(1.11283 -0.0677902 0)
(1.13328 -0.0944936 0)
(1.1585 -0.128762 0)
(1.18793 -0.171286 0)
(1.2209 -0.221741 0)
(1.25837 -0.277562 0)
(1.00115 0.0235299 0)
(1.01195 0.0590549 0)
(1.02926 0.071739 0)
(1.04764 0.0622741 0)
(1.06332 0.0403334 0)
(1.07503 0.0173303 0)
(1.08276 0.000101328 0)
(1.08725 -0.0107613 0)
(1.08977 -0.0186767 0)
(1.09189 -0.0278641 0)
(1.09503 -0.0413576 0)
(1.10016 -0.0606385 0)
(1.10759 -0.086185 0)
(1.11698 -0.11816 0)
(1.12753 -0.156838 0)
(1.13813 -0.202647 0)
(1.14762 -0.255758 0)
(1.15594 -0.315111 0)
(1.00122 0.018666 0)
(1.01323 0.0467987 0)
(1.0325 0.0563613 0)
(1.05277 0.0472047 0)
(1.07011 0.0275228 0)
(1.08323 0.00768857 0)
(1.092 -0.00622677 0)
(1.09689 -0.0143183 0)
(1.09892 -0.0205272 0)
(1.09933 -0.02928 0)
(1.09913 -0.0434275 0)
(1.09888 -0.0639317 0)
(1.09851 -0.090561 0)
(1.09746 -0.122743 0)
(1.09472 -0.160143 0)
(1.08913 -0.202875 0)
(1.07943 -0.251327 0)
(1.0651 -0.305463 0)
(1.00114 0.0140157 0)
(1.01397 0.0349993 0)
(1.03507 0.0417181 0)
(1.05708 0.03289 0)
(1.0757 0.0153037 0)
(1.08959 -0.00147754 0)
(1.09849 -0.0120494 0)
(1.1029 -0.0171107 0)
(1.10385 -0.0209708 0)
(1.10234 -0.0280881 0)
(1.09898 -0.0410336 0)
(1.09382 -0.0602917 0)
(1.08644 -0.0850888 0)
(1.0761 -0.114352 0)
(1.06189 -0.147356 0)
(1.04286 -0.183998 0)
(1.018 -0.224749 0)
(0.986706 -0.270164 0)
(1.00087 0.00986733 0)
(1.01407 0.023749 0)
(1.03704 0.0279077 0)
(1.06065 0.0195602 0)
(1.07997 0.004161 0)
(1.09355 -0.00943459 0)
(1.10124 -0.0165934 0)
(1.10398 -0.0186256 0)
(1.10312 -0.020021 0)
(1.09958 -0.0250101 0)
(1.09346 -0.0357238 0)
(1.08419 -0.0521991 0)
(1.07093 -0.073329 0)
(1.05283 -0.0978383 0)
(1.0292 -0.124883 0)
(0.999461 -0.154282 0)
(0.963048 -0.186521 0)
(0.919469 -0.222423 0)
(1.00014 0.00727651 0)
(1.01325 0.0133965 0)
(1.0384 0.0150679 0)
(1.06328 0.00748517 0)
(1.08221 -0.00534621 0)
(1.09379 -0.0154192 0)
(1.09843 -0.0191381 0)
(1.09804 -0.0184388 0)
(1.09462 -0.0177273 0)
(1.08898 -0.020679 0)
(1.08057 -0.0287968 0)
(1.06814 -0.0417033 0)
(1.05035 -0.0581764 0)
(1.02629 -0.0770391 0)
(0.995525 -0.0975843 0)
(0.957949 -0.119675 0)
(0.913425 -0.143739 0)
(0.861623 -0.170617 0)
(0.997955 0.00761057 0)
(1.01062 0.00458713 0)
(1.03865 0.00364922 0)
(1.06385 -0.00286375 0)
(1.08026 -0.0125309 0)
(1.08726 -0.018661 0)
(1.08652 -0.0190986 0)
(1.0815 -0.0163087 0)
(1.07493 -0.0142279 0)
(1.06727 -0.0156267 0)
(1.05714 -0.0212458 0)
(1.04251 -0.0303773 0)
(1.02168 -0.0418983 0)
(0.993718 -0.0549666 0)
(0.958485 -0.0691866 0)
(0.91622 -0.0845258 0)
(0.867113 -0.101288 0)
(0.810926 -0.120123 0)
(0.993323 0.00587215 0)
(1.00542 0.000871458 0)
(1.03578 -0.00392083 0)
(1.05831 -0.0106582 0)
(1.06812 -0.0168471 0)
(1.0666 -0.0186993 0)
(1.05784 -0.0162929 0)
(1.04711 -0.0123754 0)
(1.03739 -0.00988566 0)
(1.02819 -0.0103828 0)
(1.01705 -0.0138493 0)
(1.00128 -0.0194278 0)
(0.979106 -0.026288 0)
(0.949769 -0.0340388 0)
(0.913293 -0.0426341 0)
(0.870033 -0.0521409 0)
(0.820254 -0.062696 0)
(0.763703 -0.0746373 0)
(1.00765 -0.0731562 0)
(1.00952 -0.0552229 0)
(1.02404 -0.0238347 0)
(1.0317 -0.017885 0)
(1.02584 -0.0182241 0)
(1.00992 -0.0157446 0)
(0.991031 -0.0112436 0)
(0.975063 -0.00726374 0)
(0.963507 -0.00527104 0)
(0.95399 -0.00543549 0)
(0.94292 -0.00713318 0)
(0.927539 -0.00962259 0)
(0.906493 -0.0125236 0)
(0.8794 -0.0158798 0)
(0.846253 -0.0198966 0)
(0.807098 -0.024687 0)
(0.7619 -0.0302435 0)
(0.71028 -0.0366091 0)
(0.974665 0.220865 0)
(0.991411 0.0595583 0)
(0.949914 0.0040277 0)
(0.890441 -0.00741864 0)
(0.840567 -0.00880461 0)
(0.804428 -0.00663946 0)
(0.780861 -0.00392255 0)
(0.767081 -0.00234729 0)
(0.758712 -0.00213177 0)
(0.751435 -0.0027487 0)
(0.742547 -0.0036149 0)
(0.731115 -0.00444397 0)
(0.717074 -0.00529133 0)
(0.700247 -0.0063968 0)
(0.679992 -0.00796996 0)
(0.655443 -0.0100736 0)
(0.625856 -0.0126204 0)
(0.590721 -0.0154464 0)
(0.134186 -0.257618 3.08202e-21)
(0.35059 -0.391564 -2.6364e-21)
(0.617651 -0.397453 0)
(0.848654 -0.346868 0)
(1.01953 -0.275805 0)
(1.13074 -0.199233 1.1838e-22)
(1.18854 -0.122156 0)
(1.19524 -0.0466304 0)
(1.14799 0.0220654 0)
(1.05855 0.0771969 0)
(0.940472 0.114009 1.62208e-22)
(0.806891 0.13148 0)
(0.667236 0.132115 0)
(0.523883 0.122141 0)
(0.3726 0.111883 0)
(0.205086 0.115568 2.41194e-23)
(0.0119389 0.145598 0)
(-0.21757 0.197569 0)
(-0.482511 0.252801 0)
(-0.774453 0.299306 0)
(-1.08339 0.332148 0)
(-1.39932 0.350268 0)
(-1.71324 0.35463 0)
(-2.01761 0.347287 5.02086e-21)
(-2.30654 0.330776 -5.89909e-21)
(-2.5758 0.30769 6.7621e-21)
(-2.82263 0.280393 7.59276e-21)
(-3.04553 0.250857 0)
(-3.24403 0.22061 0)
(-3.41841 0.190763 -9.78837e-21)
(-3.56948 0.162062 -1.04053e-20)
(-3.69834 0.134966 0)
(-3.80627 0.109726 0)
(-3.89459 0.086471 -1.19019e-20)
(-3.96461 0.0652622 0)
(-4.01759 0.0461225 0)
(-4.05476 0.0291398 1.29006e-20)
(-4.07698 0.0145379 0)
(-4.08519 0.00237351 1.33058e-20)
(-4.08173 -0.00759816 2.68296e-20)
(-4.06887 -0.0158769 0)
(-4.04714 -0.0231096 0)
(-4.0173 -0.0296149 0)
(-3.97996 -0.0355423 0)
(-3.93562 -0.0409652 0)
(-3.88476 -0.0459185 2.61549e-20)
(-3.82784 -0.0504179 2.57513e-20)
(-3.76531 -0.0544695 2.52781e-20)
(-3.69765 -0.0580754 0)
(-3.62532 -0.0612362 -2.41451e-20)
(-3.54881 -0.0639532 0)
(-3.4686 -0.0662288 2.28021e-20)
(-3.38521 -0.0680679 2.20667e-20)
(-3.29912 -0.0694775 0)
(-3.21083 -0.0704675 0)
(-3.12083 -0.0710502 0)
(-3.02962 -0.0712408 1.88388e-20)
(-2.93766 -0.0710569 0)
(-2.84542 -0.0705183 0)
(-2.75334 -0.0696471 0)
(-2.66183 -0.0684672 0)
(-2.57131 -0.067004 0)
(-2.48213 -0.065284 0)
(-2.39466 -0.0633348 0)
(-2.3092 -0.0611847 0)
(-2.22604 -0.058862 -1.13868e-20)
(-2.14545 -0.0563952 0)
(-2.06766 -0.0538124 0)
(-1.99285 -0.0511412 9.25669e-21)
(-1.9212 -0.0484081 8.61052e-21)
(-1.85285 -0.0456387 0)
(-1.78791 -0.0428565 -7.42273e-21)
(-1.72647 -0.0400834 6.88281e-21)
(-1.66858 -0.0373386 0)
(-1.61428 -0.0346382 -5.91278e-21)
(-1.56359 -0.031995 0)
(-1.5165 -0.0294179 0)
(-1.47301 -0.0269117 4.72943e-21)
(-1.43307 -0.0244781 0)
(-1.39664 -0.022116 -4.11395e-21)
(-1.36368 -0.0198236 0)
(-1.33414 -0.0176009 3.62736e-21)
(-1.30793 -0.015452 3.42919e-21)
(-1.285 -0.013389 3.25925e-21)
(-1.26524 -0.0114327 6.23231e-21)
(-1.24853 -0.0096111 -5.99695e-21)
(-1.23474 -0.00795095 0)
(-1.22369 -0.0064661 0)
(-1.2152 -0.00514707 0)
(-1.2091 -0.00395592 -5.50592e-21)
(-1.20525 -0.00282843 -5.48112e-21)
(-1.20355 -0.00168443 5.48945e-21)
(-1.20392 -0.000428991 0)
(-1.20635 0.00101737 -5.59024e-21)
(-1.21093 0.00246571 -5.67655e-21)
(-1.21757 0.0038235 -5.78322e-21)
(-1.2261 0.00504405 0)
(-1.2363 0.00609723 0)
(-1.24792 0.0069616 0)
(-1.26066 0.00762124 -6.35728e-21)
(-1.2742 0.0080638 0)
(-1.28822 0.00827872 0)
(-1.30237 0.00825551 6.86645e-21)
(-1.3163 0.00798336 0)
(-1.32967 0.00745316 0)
(-1.34211 0.00666243 7.3719e-21)
(-1.3533 0.00562315 0)
(-1.36292 0.00437099 0)
(-1.37071 0.00297044 -7.82764e-21)
(-1.37641 0.00151208 -7.96371e-21)
(-1.3798 0.000111463 0)
(-1.38078 -0.0011321 8.20509e-21)
(-1.3799 -0.00216277 0)
(-1.3773 -0.0030861 -8.39765e-21)
(-1.37299 -0.00395272 0)
(-1.36705 -0.00477153 -8.54329e-21)
(-1.35953 -0.00554348 -8.59869e-21)
(-1.35048 -0.00626593 0)
(-1.33997 -0.00693637 0)
(-1.32806 -0.00755264 0)
(-1.31485 -0.00811322 0)
(-1.30041 -0.0086174 0)
(-1.28484 -0.00906524 0)
(-1.26821 -0.00945772 0)
(-1.25061 -0.00979673 -8.65138e-21)
(-1.23215 -0.0100851 8.61276e-21)
(-1.21289 -0.0103268 0)
(-1.19291 -0.0105268 0)
(-1.17229 -0.010691 0)
(-1.15108 -0.0108263 0)
(-1.12932 -0.0109407 1.65661e-20)
(-1.10706 -0.0110427 0)
(-1.0843 -0.0111415 -1.61784e-20)
(-1.06104 -0.0112465 1.59583e-20)
(-1.03725 -0.0113671 0)
(-1.0129 -0.0115125 0)
(-0.987929 -0.0116913 0)
(-0.962254 -0.0119109 -1.49037e-20)
(-0.935784 -0.0121778 -1.45968e-20)
(-0.908412 -0.0124966 0)
(-0.880022 -0.0128706 -1.39316e-20)
(-0.850488 -0.0133011 -1.35738e-20)
(-0.819686 -0.0137875 1.31996e-20)
(-0.787488 -0.0143275 0)
(-0.753775 -0.0149169 0)
(-0.718436 -0.0155498 1.19835e-20)
(-0.681373 -0.0162189 0)
(-0.642506 -0.0169154 0)
(-0.601774 -0.0176291 0)
(-0.559139 -0.018349 0)
(-0.514588 -0.0190635 -9.70284e-21)
(-0.468135 -0.0197614 -9.22187e-21)
(-0.41982 -0.0204322 0)
(-0.369706 -0.0210658 -8.2515e-21)
(-0.317879 -0.0216529 0)
(-0.264457 -0.0221825 0)
(-0.209591 -0.022635 -6.81381e-21)
(-0.153457 -0.0229776 0)
(-0.0962785 -0.023174 -5.90063e-21)
(-0.0383421 -0.0231745 0)
(0.020007 -0.0229451 0)
(0.0784311 -0.0225016 -4.5566e-21)
(0.136557 -0.0218855 0)
(0.194005 -0.0211262 -3.74241e-21)
(0.250403 -0.020242 0)
(0.305377 -0.0192384 0)
(0.358525 -0.0181095 0)
(0.409411 -0.0168415 2.51837e-21)
(0.457538 -0.0154149 0)
(0.50234 -0.0138082 -2.08839e-21)
(0.543183 -0.0120066 0)
(0.579391 -0.0100103 0)
(0.610303 -0.00783757 0)
(0.635482 -0.00573875 0)
(0.654111 -0.000588994 0)
(0.6643 0.00417127 0)
(0.664689 0.0086872 0)
(0.654823 0.0126756 1.56509e-21)
(0.635122 0.0191364 0)
(0.585922 0.0232106 0)
(0.202596 -0.803288 -5.94685e-21)
(0.358225 -0.891849 4.65169e-21)
(0.507239 -0.734272 0)
(0.602713 -0.545234 -5.98009e-22)
(0.648159 -0.364987 0)
(0.655275 -0.199064 -9.67075e-23)
(0.628917 -0.0474281 -1.11973e-21)
(0.574381 0.0890407 -1.256e-21)
(0.498009 0.207077 0)
(0.391948 0.302172 -7.68811e-22)
(0.251617 0.371867 -1.38854e-22)
(0.0731918 0.419945 0)
(-0.1446 0.459557 0)
(-0.401166 0.508545 0)
(-0.694596 0.575174 0)
(-1.01879 0.655641 -1.43216e-23)
(-1.36072 0.737573 0)
(-1.70528 0.806323 9.18505e-22)
(-2.03975 0.851579 0)
(-2.355 0.869706 0)
(-2.64492 0.861913 -3.82768e-21)
(-2.90573 0.832107 0)
(-3.13577 0.785375 6.36318e-21)
(-3.3352 0.726972 -3.30849e-21)
(-3.50556 0.661682 3.99328e-21)
(-3.64932 0.593478 -4.68649e-21)
(-3.76946 0.525404 -5.36907e-21)
(-3.86905 0.4596 0)
(-3.95103 0.397424 0)
(-4.018 0.339604 7.21467e-21)
(-4.07219 0.2864 -8.457e-21)
(-4.11543 0.237752 0)
(-4.14919 0.193398 0)
(-4.17462 0.152974 8.96756e-21)
(-4.19264 0.116094 0)
(-4.20397 0.0824077 0)
(-4.2092 0.0516687 -9.73446e-21)
(-4.2089 0.0238092 0)
(-4.20337 -0.00120023 1.04776e-20)
(-4.19167 -0.0236468 -2.0103e-20)
(-4.17242 -0.0439143 0)
(-4.1458 -0.0624057 0)
(-4.11188 -0.0793937 -4.09143e-20)
(-4.07088 -0.0950312 -4.05671e-20)
(-4.02314 -0.109402 -4.00967e-20)
(-3.96901 -0.122547 2.0282e-20)
(-3.90891 -0.134487 -1.88752e-20)
(-3.84326 -0.14523 -5.65063e-20)
(-3.7725 -0.154778 3.71565e-20)
(-3.69709 -0.163137 1.75501e-20)
(-3.61752 -0.17031 0)
(-3.53426 -0.176311 -1.6496e-20)
(-3.44781 -0.181156 1.70288e-20)
(-3.35866 -0.184867 0)
(-3.26732 -0.187476 0)
(-3.17426 -0.189019 0)
(-3.07999 -0.18954 -1.35281e-20)
(-2.98498 -0.189087 0)
(-2.88969 -0.187714 2.55689e-20)
(-2.79457 -0.185482 0)
(-2.70005 -0.182452 2.30677e-20)
(-2.60653 -0.178689 0)
(-2.5144 -0.174262 -2.06354e-20)
(-2.42401 -0.169239 0)
(-2.33569 -0.163688 1.8313e-20)
(-2.24975 -0.157679 -8.95954e-21)
(-2.16646 -0.151279 0)
(-2.08607 -0.144554 -1.51065e-20)
(-2.00879 -0.137566 -6.77042e-21)
(-1.93482 -0.130377 -6.32483e-21)
(-1.86433 -0.123044 0)
(-1.79744 -0.115621 -5.95855e-21)
(-1.73427 -0.108158 -5.135e-21)
(-1.67491 -0.100703 0)
(-1.61942 -0.093298 4.46694e-21)
(-1.56784 -0.0859829 -8.62989e-21)
(-1.52019 -0.0787924 0)
(-1.47647 -0.0717571 -3.65009e-21)
(-1.43665 -0.0649034 0)
(-1.40068 -0.0582527 9.82261e-21)
(-1.36849 -0.0518228 0)
(-1.33999 -0.0456283 -8.75057e-21)
(-1.31509 -0.0396825 -2.74637e-21)
(-1.29367 -0.0339991 2.67797e-21)
(-1.2756 -0.0285942 5.11734e-21)
(-1.26077 -0.0234849 -4.9197e-21)
(-1.24904 -0.0186856 0)
(-1.24032 -0.0142019 0)
(-1.23447 -0.0100277 0)
(-1.23142 -0.00614808 1.36411e-20)
(-1.23103 -0.00254041 4.56338e-21)
(-1.2332 0.000832291 -4.58057e-21)
(-1.23774 0.00403012 0)
(-1.24447 0.00710258 -4.54767e-21)
(-1.25294 0.00994809 4.75382e-21)
(-1.26284 0.0124797 4.84663e-21)
(-1.27388 0.0146407 0)
(-1.28578 0.0163933 0)
(-1.29827 0.0177133 0)
(-1.31108 0.0185869 5.33363e-21)
(-1.32395 0.0190094 0)
(-1.33662 0.0189843 -1.11198e-20)
(-1.34886 0.0185219 -1.71742e-20)
(-1.36044 0.0176398 1.1711e-20)
(-1.37117 0.0163635 0)
(-1.3809 0.0147272 6.11035e-21)
(-1.38951 0.0127756 0)
(-1.39694 0.0105632 1.28201e-20)
(-1.40317 0.0081575 -6.52096e-21)
(-1.40826 0.00564565 -6.64237e-21)
(-1.41233 0.00314558 0)
(-1.41546 0.000775709 -2.05512e-20)
(-1.41728 -0.00141909 1.38718e-20)
(-1.41766 -0.0035025 6.99564e-21)
(-1.41658 -0.00549823 0)
(-1.41404 -0.00740747 7.10517e-21)
(-1.41006 -0.00922549 2.15023e-20)
(-1.40465 -0.0109447 0)
(-1.39786 -0.0125582 1.44877e-20)
(-1.38973 -0.0140602 1.45275e-20)
(-1.38031 -0.0154468 1.45504e-20)
(-1.36964 -0.0167156 0)
(-1.35778 -0.0178663 0)
(-1.34478 -0.0189002 0)
(-1.33071 -0.0198208 -7.30383e-21)
(-1.31562 -0.0206336 -7.14884e-21)
(-1.29957 -0.0213462 0)
(-1.2826 -0.0219682 -1.42733e-20)
(-1.26476 -0.0225115 -1.41746e-20)
(-1.24609 -0.0229897 0)
(-1.22662 -0.0234185 -1.37885e-20)
(-1.20637 -0.0238149 -2.75844e-20)
(-1.18535 -0.024197 1.34855e-20)
(-1.16354 -0.0245835 1.36173e-20)
(-1.14094 -0.0249931 0)
(-1.11749 -0.0254438 0)
(-1.09317 -0.0259524 0)
(-1.0679 -0.0265337 1.24666e-20)
(-1.04161 -0.0272 -1.25543e-20)
(-1.01421 -0.0279604 -2.42495e-20)
(-0.985602 -0.0288207 1.1671e-20)
(-0.955695 -0.0297828 -1.17423e-20)
(-0.924381 -0.0308448 -1.10645e-20)
(-0.891558 -0.032001 0)
(-0.857127 -0.0332422 0)
(-0.820998 -0.0345554 1.04665e-20)
(-0.783091 -0.0359249 0)
(-0.743341 -0.0373323 0)
(-0.701698 -0.0387569 -1.83054e-20)
(-0.658135 -0.0401768 0)
(-0.612643 -0.0415692 -8.61691e-21)
(-0.565236 -0.0429118 7.72109e-21)
(-0.515952 -0.0441834 0)
(-0.464851 -0.0453634 -7.42868e-21)
(-0.41202 -0.0464311 0)
(-0.35757 -0.0473653 0)
(-0.30164 -0.048141 5.69442e-21)
(-0.244387 -0.0487282 -1.11615e-20)
(-0.185993 -0.0490939 4.9309e-21)
(-0.126664 -0.0492033 0)
(-0.066646 -0.0490192 0)
(-0.00622839 -0.0485251 -4.40276e-21)
(0.0542852 -0.0477232 0)
(0.114572 -0.0466292 -3.69481e-21)
(0.174295 -0.0452564 0)
(0.233099 -0.0436034 0)
(0.290602 -0.0416541 0)
(0.346386 -0.0393805 -2.18194e-21)
(0.399993 -0.0367467 0)
(0.450911 -0.0337154 1.81822e-21)
(0.498585 -0.0302614 0)
(0.542426 -0.0263872 0)
(0.581833 -0.0221387 -3.00185e-21)
(0.6161 -0.0176327 2.71527e-21)
(0.644682 -0.0129258 0)
(0.66725 -0.00798665 0)
(0.684019 -0.00193997 0)
(0.692318 0.0052478 -4.14607e-21)
(0.692593 0.014854 0)
(0.675984 0.0253809 7.41887e-22)
(0.136356 -1.27918 -7.29959e-22)
(0.162165 -1.12314 -5.06878e-21)
(0.179229 -0.81628 0)
(0.161301 -0.551814 1.31185e-21)
(0.116853 -0.31702 0)
(0.0486081 -0.102466 0)
(-0.0446143 0.0957959 5.1416e-22)
(-0.164439 0.280816 1.1401e-21)
(-0.311958 0.453423 4.98034e-22)
(-0.488293 0.611542 6.30704e-22)
(-0.695363 0.752988 0)
(-0.934812 0.879607 0)
(-1.20493 0.996524 1.36629e-22)
(-1.49858 1.1066 5.3167e-23)
(-1.80373 1.20613 4.98884e-22)
(-2.10562 1.28669 0)
(-2.39001 1.33973 2.56965e-21)
(-2.64656 1.36008 -6.87993e-22)
(-2.87038 1.34701 0)
(-3.06126 1.30374 7.52814e-21)
(-3.22204 1.23599 3.01182e-21)
(-3.35715 1.15054 -1.14943e-20)
(-3.4715 1.05408 -5.09643e-21)
(-3.56975 0.952488 0)
(-3.65582 0.85047 1.75307e-20)
(-3.73272 0.751453 1.94316e-20)
(-3.80249 0.657686 0)
(-3.8664 0.570428 2.29472e-20)
(-3.92508 0.490177 0)
(-3.97868 0.416897 2.60163e-20)
(-4.0271 0.35021 1.29688e-20)
(-4.07005 0.289555 0)
(-4.10719 0.234295 0)
(-4.13815 0.183796 0)
(-4.16259 0.137462 0)
(-4.18019 0.094751 0)
(-4.19063 0.0551671 0)
(-4.1936 0.0182393 3.32824e-20)
(-4.18891 -0.0164674 -4.97502e-20)
(-4.17647 -0.0492455 0)
(-4.15632 -0.0801721 0)
(-4.12869 -0.109202 0)
(-4.0938 -0.136311 -1.04311e-21)
(-4.05191 -0.161497 3.18883e-20)
(-4.00333 -0.184762 6.39549e-20)
(-3.94841 -0.206099 -6.29153e-20)
(-3.88753 -0.2255 -3.13661e-20)
(-3.8211 -0.242955 2.96765e-20)
(-3.74956 -0.258457 9.96159e-22)
(-3.67336 -0.272006 2.9131e-20)
(-3.59297 -0.283609 0)
(-3.50887 -0.293282 2.73698e-20)
(-3.42157 -0.301054 9.21523e-22)
(-3.33156 -0.306963 0)
(-3.23933 -0.31106 0)
(-3.14539 -0.313408 -2.34648e-20)
(-3.05022 -0.314079 0)
(-2.95431 -0.313156 0)
(-2.85812 -0.310728 2.11634e-20)
(-2.7621 -0.306893 3.8802e-20)
(-2.66668 -0.301757 -1.77169e-20)
(-2.57228 -0.295426 0)
(-2.47926 -0.288013 1.58411e-20)
(-2.388 -0.279629 0)
(-2.29882 -0.270388 1.5155e-20)
(-2.21203 -0.260401 1.32141e-20)
(-2.12791 -0.249779 -2.57542e-20)
(-2.0467 -0.238627 -1.25062e-20)
(-1.96862 -0.227047 0)
(-1.89386 -0.215138 2.10859e-20)
(-1.8226 -0.20299 0)
(-1.75497 -0.19069 2.72231e-20)
(-1.69109 -0.178317 1.71155e-20)
(-1.63105 -0.165945 1.59541e-20)
(-1.57492 -0.15364 -1.48743e-20)
(-1.52275 -0.141465 2.06145e-20)
(-1.47458 -0.129473 0)
(-1.4304 -0.117716 0)
(-1.39021 -0.106238 -1.13559e-20)
(-1.35399 -0.0950807 -1.59032e-20)
(-1.32167 -0.0842809 0)
(-1.29319 -0.0738716 4.69835e-21)
(-1.26846 -0.0638825 0)
(-1.24736 -0.0543404 -1.2924e-20)
(-1.22978 -0.0452685 9.23602e-24)
(-1.21558 -0.0366853 1.98988e-23)
(-1.20462 -0.0286019 7.78151e-21)
(-1.19675 -0.0210186 0)
(-1.19182 -0.0139247 -7.50374e-21)
(-1.18966 -0.00730024 -1.03736e-22)
(-1.19009 -0.00112096 0)
(-1.19288 0.00462476 0)
(-1.19777 0.00990355 0)
(-1.2045 0.014632 7.74953e-21)
(-1.21282 0.0187827 0)
(-1.22247 0.0223259 0)
(-1.2332 0.0252317 0)
(-1.24477 0.0274781 0)
(-1.25695 0.0290537 0)
(-1.2695 0.0299588 8.76998e-21)
(-1.2822 0.0302055 0)
(-1.29486 0.0298165 9.37026e-21)
(-1.30729 0.0288259 9.61366e-21)
(-1.31933 0.0272788 -9.85477e-21)
(-1.33082 0.025232 0)
(-1.34166 0.0227554 -1.03198e-20)
(-1.35175 0.0199306 0)
(-1.36103 0.0168484 -1.07482e-20)
(-1.36945 0.0136033 1.09448e-20)
(-1.37697 0.0102897 3.33323e-20)
(-1.38352 0.00698539 0)
(-1.38901 0.00372943 3.43456e-20)
(-1.39331 0.000517901 1.15971e-20)
(-1.39636 -0.00263377 0)
(-1.39812 -0.0057023 2.36621e-20)
(-1.39859 -0.00866909 2.38552e-20)
(-1.39777 -0.011518 -3.59854e-20)
(-1.39566 -0.0142351 0)
(-1.39227 -0.0168086 -1.20714e-20)
(-1.38763 -0.0192295 -1.21046e-20)
(-1.38177 -0.0214914 -3.65256e-20)
(-1.37471 -0.0235903 0)
(-1.36649 -0.0255253 0)
(-1.35713 -0.0272979 0)
(-1.34668 -0.0289125 -1.22863e-20)
(-1.33516 -0.0303764 0)
(-1.32262 -0.0316997 0)
(-1.30906 -0.0328957 1.19492e-20)
(-1.29453 -0.0339805 1.18791e-20)
(-1.27904 -0.034973 0)
(-1.2626 -0.0358946 0)
(-1.24522 -0.0367689 2.31984e-20)
(-1.2269 -0.0376212 0)
(-1.20762 -0.0384775 -2.27028e-20)
(-1.18735 -0.0393642 -2.2673e-20)
(-1.16608 -0.0403066 0)
(-1.14375 -0.0413286 0)
(-1.12031 -0.0424512 2.16713e-20)
(-1.0957 -0.0436918 -2.83371e-22)
(-1.06984 -0.0450637 -2.9151e-22)
(-1.04266 -0.0465748 0)
(-1.01407 -0.0482278 3.96059e-20)
(-0.983984 -0.0500198 0)
(-0.952325 -0.0519422 0)
(-0.919009 -0.0539808 0)
(-0.883962 -0.0561165 -1.7474e-20)
(-0.847117 -0.0583255 0)
(-0.808423 -0.0605803 3.32417e-20)
(-0.76784 -0.0628503 1.56058e-20)
(-0.725345 -0.0651027 0)
(-0.680933 -0.0673037 1.42784e-20)
(-0.634619 -0.0694197 0)
(-0.586437 -0.0714178 0)
(-0.536444 -0.0732661 3.7528e-20)
(-0.48472 -0.0749329 -2.39399e-20)
(-0.431367 -0.0763866 0)
(-0.37651 -0.0775941 -2.12423e-20)
(-0.320292 -0.07852 9.52418e-21)
(-0.262875 -0.0791279 0)
(-0.204439 -0.07938 0)
(-0.145189 -0.0792398 0)
(-0.0853561 -0.0786787 2.21282e-20)
(-0.0251986 -0.0776821 0)
(0.0350072 -0.0762498 6.0004e-21)
(0.0949569 -0.0743804 0)
(0.154317 -0.0720636 0)
(0.212727 -0.0692742 0)
(0.269799 -0.0659723 0)
(0.325106 -0.0621081 0)
(0.378186 -0.0576316 0)
(0.428544 -0.0525089 6.8231e-21)
(0.475658 -0.0467399 0)
(0.518992 -0.0403659 2.65594e-21)
(0.557927 -0.0334441 -7.5141e-21)
(0.592077 -0.0257539 0)
(0.62127 -0.0172072 0)
(0.644936 -0.00769207 3.32244e-21)
(0.662059 0.00273252 2.4699e-21)
(0.672796 0.0162236 -1.73643e-21)
(0.676249 0.0302312 -6.78703e-22)
(-0.0147473 -1.37783 2.0637e-20)
(-0.0770507 -0.994922 1.34226e-20)
(-0.166475 -0.675176 6.9241e-21)
(-0.270645 -0.386183 4.11689e-21)
(-0.390859 -0.114599 0)
(-0.529179 0.144098 -2.45475e-21)
(-0.688591 0.391636 2.19459e-21)
(-0.870793 0.628252 0)
(-1.07519 0.852617 -3.94162e-22)
(-1.29962 1.06144 0)
(-1.54066 1.25049 -2.96831e-22)
(-1.79304 1.4158 0)
(-2.04877 1.55342 -1.09222e-22)
(-2.29742 1.65873 -4.29355e-23)
(-2.52832 1.72697 -4.0736e-22)
(-2.73338 1.75536 0)
(-2.90881 1.74469 -2.14032e-21)
(-3.05521 1.69935 0)
(-3.17632 1.62598 0)
(-3.27747 1.53209 -6.36511e-21)
(-3.36421 1.42493 0)
(-3.44143 1.31077 -3.06293e-21)
(-3.51286 1.1946 0)
(-3.58102 1.08005 0)
(-3.64732 0.969546 2.50598e-21)
(-3.71225 0.864547 -1.65081e-20)
(-3.77566 0.765747 -2.02238e-20)
(-3.837 0.673317 -1.95754e-20)
(-3.89548 0.587083 0)
(-3.95024 0.506667 -4.63516e-20)
(-4.00044 0.431591 0)
(-4.04529 0.361344 -2.62003e-20)
(-4.08412 0.29543 0)
(-4.11635 0.2334 0)
(-4.14151 0.174868 2.87257e-20)
(-4.15926 0.119511 0)
(-4.16931 0.0670775 -2.98795e-20)
(-4.17153 0.0173504 1.25241e-21)
(-4.16587 -0.0298576 5.96456e-20)
(-4.15237 -0.0746268 -6.10059e-20)
(-4.13118 -0.11699 0)
(-4.10247 -0.156921 0)
(-4.06644 -0.194378 -3.11955e-20)
(-4.02338 -0.229315 0)
(-3.97357 -0.261685 -2.82697e-20)
(-3.91737 -0.291443 2.77983e-20)
(-3.85515 -0.318547 2.72544e-20)
(-3.78733 -0.342963 0)
(-3.71435 -0.364666 -2.59777e-20)
(-3.63666 -0.383643 -2.52592e-20)
(-3.55477 -0.399898 5.06921e-20)
(-3.46915 -0.413449 -2.3697e-20)
(-3.38032 -0.424332 -2.28669e-20)
(-3.28879 -0.4326 0)
(-3.19506 -0.438322 0)
(-3.09965 -0.441586 2.02567e-20)
(-3.00307 -0.442492 0)