/*--------------------------------*- C++ -*----------------------------------*\
  =========                 |
  \\      /  F ield         | OpenFOAM: The Open Source CFD Toolbox
   \\    /   O peration     | Website:  https://openfoam.org
    \\  /    A nd           | Version:  9
     \\/     M anipulation  |
\*---------------------------------------------------------------------------*/
FoamFile
{
    format      ascii;
    class       volScalarField;
    location    "0.19";
    object      epsilon;
}
// * * * * * * * * * * * * * * * * * * * * * * * * * * * * * * * * * * * * * //

dimensions      [0 2 -3 0 0 0 0];

internalField   nonuniform List<scalar> 
12225
(
210.126
126.801
82.4206
59.1685
46.7051
39.5484
34.9713
31.7005
29.1657
27.1052
25.3858
23.9306
22.6958
21.6859
20.9205
20.49
20.992
23.8931
62.6852
55.4925
42.4402
33.4753
27.7439
23.9566
21.3315
19.4116
17.9353
16.7556
15.7871
14.9762
14.2885
13.7062
13.2059
12.7682
12.4611
12.068
31.8588
33.4608
28.9383
24.3992
20.8646
18.2374
16.279
14.7851
13.612
12.6658
11.8853
11.2287
10.6662
10.1755
9.73879
9.32906
9.01091
8.98148
22.0094
23.9886
22.24
19.7016
17.353
15.4087
13.851
12.605
11.5967
10.7682
10.0768
9.49091
8.98644
8.54406
8.15103
7.79454
7.52172
7.48198
17.8987
19.1544
18.3385
16.7813
15.1406
13.6574
12.3915
11.3319
10.4466
9.70288
9.07261
8.5329
8.06522
7.65451
7.29176
6.97277
6.73046
6.65199
15.9205
16.4438
15.8934
14.8188
13.6046
12.438
11.3918
10.4814
9.69808
9.02532
8.44573
7.94348
7.50493
7.11896
6.77926
6.48566
6.26007
6.15141
14.8963
14.8441
14.3047
13.4544
12.4915
11.5384
10.6553
9.86407
9.1665
8.55547
8.02083
7.55203
7.13939
6.77489
6.45398
6.17835
5.96123
5.82985
14.3474
13.8769
13.2568
12.4944
11.6722
10.8582
10.0927
9.39404
8.76709
8.20927
7.71469
7.27639
6.88756
6.54251
6.23796
5.97539
5.76251
5.61435
14.0495
13.2888
12.5652
11.8201
11.0695
10.3415
9.65714
9.02784
8.45716
7.94386
7.48416
7.07322
6.70612
6.37872
6.08851
5.83593
5.62566
5.4658
13.8876
12.9335
12.1134
11.352
10.6309
9.95196
9.32082
8.7411
8.2134
7.73596
7.30557
6.9184
6.57061
6.25892
5.98122
5.73718
5.52885
5.36122
13.8001
12.7222
11.8236
11.0333
10.3178
9.6634
9.06461
8.51841
8.02199
7.57215
7.16537
6.79802
6.46672
6.16858
5.90158
5.66481
5.45886
5.28683
13.757
12.609
11.6573
10.8395
10.1181
9.47215
8.88955
8.36271
7.886
7.45469
7.06455
6.71174
6.39287
6.10515
5.84646
5.61555
5.41225
5.23883
13.7324
12.5399
11.5496
10.7074
9.97622
9.33144
8.75709
8.24227
7.77906
7.36129
6.98391
6.64266
6.33398
6.05496
5.80335
5.5776
5.37721
5.20363
13.7176
12.4958
11.4765
10.6129
9.86985
9.22175
8.65043
8.14271
7.68884
7.28132
6.91423
6.58278
6.28305
6.01189
5.76684
5.5461
5.34891
5.17623
13.7096
12.4709
11.4326
10.5528
9.79866
9.14508
8.57308
8.0683
7.6198
7.21908
6.85944
6.53556
6.24312
5.97866
5.73945
5.52344
5.32963
5.1586
13.7059
12.4585
11.4096
10.5196
9.75729
9.09848
8.52424
8.01984
7.57375
7.17689
6.82205
6.50345
6.21644
5.95726
5.7229
5.51109
5.32061
5.15167
13.7043
12.4531
11.3994
10.5042
9.73728
9.07507
8.49893
7.99412
7.54897
7.15415
6.80217
6.487
6.20374
5.94839
5.71775
5.50937
5.32185
5.15505
13.7038
12.4513
11.3959
10.4989
9.73039
9.06702
8.49031
7.9856
7.54122
7.14775
6.79763
6.48469
6.2039
5.95114
5.72308
5.51717
5.33188
5.16681
13.7039
12.4515
11.3965
10.5003
9.73282
9.07053
8.49495
7.99141
7.54821
7.15595
6.80706
6.49535
6.21578
5.9642
5.73725
5.53234
5.3479
5.18338
13.7051
12.4559
11.4054
10.5143
9.75169
9.09355
8.52101
8.01934
7.57693
7.18457
6.83487
6.52184
6.24058
5.9871
5.7581
5.55106
5.36444
5.19781
13.7096
12.4706
11.4328
10.5541
9.80158
9.1502
8.58108
8.07988
7.63561
7.23971
6.88534
6.56701
6.28022
6.02117
5.78674
5.57451
5.38297
5.21189
13.7245
12.516
11.5105
10.658
9.92239
9.27865
8.70948
8.20267
7.74921
7.34211
6.97571
6.64526
6.34672
6.0767
5.83221
5.61083
5.41106
5.23282
13.7691
12.6395
11.7022
10.8931
10.1759
9.53122
8.94835
8.42059
7.94293
7.51101
7.1208
6.76842
6.45021
6.16272
5.90297
5.66839
5.45724
5.26949
13.8933
12.9424
12.1243
11.3657
10.6484
9.97312
9.345
8.76743
8.2412
7.76487
7.33551
6.94947
6.60279
6.29152
6.01192
5.76085
5.53606
5.33735
14.2185
13.6255
12.9722
12.2319
11.4526
10.6821
9.95236
9.28026
8.67189
8.12686
7.64134
7.20997
6.82702
6.48692
6.18448
5.91522
5.67591
5.46598
15.0377
15.0829
14.576
13.7257
12.7442
11.7611
10.8422
10.0145
9.28312
8.64302
8.08487
7.59834
7.17354
6.80174
6.47534
6.18792
5.93452
5.714
17.097
18.1469
17.5422
16.2414
14.779
13.3875
12.1527
11.0912
10.1903
9.42836
8.78264
8.23304
7.76264
7.35767
7.00714
6.70214
6.43579
6.20509
22.6727
24.8734
23.1827
20.5997
18.1157
15.9909
14.2528
12.8521
11.7229
10.8057
10.053
9.42872
8.90532
8.46233
8.08449
7.75988
7.47919
7.23721
41.2478
41.6071
35.2156
29.2334
24.5736
21.0732
18.4664
16.5117
15.0205
13.8589
12.9353
12.1875
11.5724
11.0601
10.6303
10.2677
9.95887
9.69777
136.094
97.2191
71.7095
54.8629
43.6776
36.191
31.0912
27.5116
24.9041
22.9326
21.3922
20.1556
19.1417
18.2983
17.5962
17.0105
16.5172
16.1154
3.34628
2.0466
2.82664
3.46115
3.97072
4.38759
4.7342
5.02551
5.2727
5.48485
5.67004
5.83657
5.9952
6.15681
6.32767
6.51392
6.72053
6.95177
7.21016
7.49511
7.80174
8.11958
8.42299
8.69516
8.91354
9.04297
9.02442
8.79622
8.47278
8.80215
40.0546
40.6585
39.6464
42.3516
42.913
42.1919
40.0304
40.6692
39.9777
42.5057
46.1628
49.9559
53.8059
57.6565
61.4716
65.2214
68.8829
72.4386
75.8759
79.1861
82.364
85.407
88.3145
91.0877
93.7286
96.2403
98.6261
100.89
103.035
105.066
106.987
108.8
110.511
112.122
113.638
115.063
116.403
117.662
118.848
119.969
121.032
122.043
122.999
123.901
124.753
125.558
126.318
127.035
127.71
128.343
128.933
129.48
129.981
130.434
130.841
131.206
131.534
131.839
132.128
132.367
132.554
132.691
132.776
132.805
132.771
132.665
132.474
132.185
131.779
131.239
130.545
129.675
128.606
127.314
125.772
123.955
121.835
119.382
116.566
113.349
109.68
105.42
100.788
96.3883
92.1209
87.6195
82.8119
77.7805
72.6588
67.635
63.1103
60.1748
61.8511
54.0683
12.4523
54.4985
54.5449
54.7362
12.6822
12.3553
12.285
12.4777
13.1882
12.3285
13.1295
12.7835
12.3701
57.5881
57.8359
13.724
58.3091
13.8304
13.8307
13.8475
13.8866
13.9491
14.0319
14.126
14.2217
14.3173
14.4169
14.5206
14.6231
14.7156
14.79
14.8444
14.8955
14.9828
15.116
15.2317
15.2412
15.1904
15.1279
15.1537
15.0195
14.7479
14.3693
13.8997
13.4008
12.8708
12.3097
11.7267
11.1328
10.5387
9.95448
9.38794
8.84372
8.32238
7.81351
7.30846
4.8775
3.35587
3.36045
3.48827
3.62128
3.74255
3.85219
3.95398
4.05242
4.15208
4.25774
4.37482
4.51
4.67096
4.86498
5.09467
5.36472
5.68081
6.04881
6.4741
6.96029
7.50684
8.112
8.77923
9.52836
10.3619
11.3348
12.494
13.8901
15.7451
19.3533
20.8771
21.9822
23.0775
24.053
24.9883
25.9543
27.0891
28.1971
29.4748
30.7798
32.0431
33.2652
34.4461
35.5828
36.6742
37.7196
38.7183
39.6698
40.5739
41.4303
42.2388
42.9998
43.7134
44.3801
45.0004
45.575
46.1047
46.5902
47.0326
47.4329
47.7926
48.1133
48.3969
48.6461
48.8641
49.0554
49.2262
49.3851
49.5452
49.7258
49.8933
50.0457
50.1836
50.3085
50.4221
50.5257
50.6207
50.7081
50.7887
50.8634
50.9329
50.998
51.0597
51.1196
51.1794
51.2403
51.3036
51.369
51.4339
51.4979
51.5613
51.6242
51.6863
51.7472
51.806
51.8616
51.9126
51.9576
51.9951
52.0235
52.0404
52.0432
52.0277
51.9871
51.911
51.7831
51.5788
51.2609
50.7749
50.0762
49.1117
47.7794
46.074
44.089
41.8842
39.5632
37.1236
34.6127
32.1643
29.8906
27.5782
27.1408
24.2355
18.5948
22.0175
21.9479
20.5933
15.0995
12.8529
12.428
12.7295
11.1391
11.812
10.0754
10.0553
11.2434
16.881
16.2701
10.831
15.3264
9.47596
8.97392
8.90604
8.88864
8.88936
8.9029
8.92409
8.94816
8.97446
9.00615
9.04413
9.08346
9.11928
9.14769
9.16856
9.1903
9.22814
9.28135
9.31975
9.30997
9.26825
9.21486
9.17676
9.06024
8.86606
8.60866
8.29747
7.96842
7.62285
7.26088
6.88828
6.512
6.13902
5.77562
5.42695
5.09663
4.78789
4.50385
4.27703
7.4467
4.80384
4.36996
4.23099
4.17851
4.16404
4.17228
4.19811
4.24078
4.30187
4.38469
4.49415
4.6367
4.81959
5.04768
5.32777
5.66783
6.07649
6.56076
7.12656
7.77923
8.52611
9.3556
10.2625
11.2446
12.299
13.427
14.6176
15.838
17.0803
18.3826
19.4297
20.3346
21.1671
21.9779
22.8023
23.6483
24.4998
25.3394
26.1776
27.0049
27.8115
28.5966
29.3585
30.093
30.7967
31.4672
32.1023
32.701
33.2624
33.7863
34.2729
34.7226
35.1359
35.5138
35.8571
36.1669
36.4442
36.6903
36.9063
37.0936
37.2537
37.3882
37.499
37.5882
37.6584
37.7124
37.7536
37.7858
37.8131
37.8397
37.8607
37.8706
37.8706
37.8618
37.8453
37.8222
37.7935
37.7605
37.7242
37.6855
37.6457
37.6057
37.567
37.5307
37.4979
37.4688
37.4435
37.4219
37.4037
37.389
37.3778
37.3702
37.3658
37.3643
37.3648
37.3663
37.3672
37.3658
37.3594
37.3452
37.3194
37.2771
37.2126
37.1183
36.9851
36.8017
36.5541
36.2256
35.7971
35.2548
34.5898
33.7747
32.775
31.5872
30.2381
28.7701
27.2122
25.606
24.0279
22.5281
20.9828
19.8766
18.2983
16.4173
16.1486
15.4886
14.4732
12.7396
11.6108
11.0253
10.6205
9.89014
9.7196
9.0346
8.90611
9.19769
10.0662
9.71531
8.59312
9.0708
7.84987
7.56597
7.47764
7.42978
7.39839
7.37846
7.36663
7.36049
7.35991
7.36638
7.38031
7.39824
7.41712
7.43462
7.45036
7.46752
7.49087
7.5174
7.53266
7.52282
7.49179
7.44532
7.38791
7.28312
7.12695
6.92465
6.68159
6.4217
6.14482
5.85264
5.54994
5.2426
4.93669
4.63789
4.35108
4.08018
3.82903
3.60291
3.42114
10.4791
6.30825
5.42985
5.07743
4.89717
4.79963
4.75225
4.74152
4.76225
4.81377
4.89841
5.0208
5.18731
5.4014
5.67038
6.00242
6.40633
6.89147
7.46821
8.13438
8.88947
9.72917
10.6427
11.615
12.6279
13.6617
14.6974
15.7168
16.6985
17.6262
18.4899
19.2626
19.9696
20.6418
21.308
21.9879
22.6849
23.3892
24.0925
24.7904
25.477
26.1472
26.7985
27.4281
28.0328
28.6098
29.1568
29.6721
30.1548
30.6044
31.0208
31.4043
31.7555
32.0752
32.3642
32.6237
32.8547
33.0583
33.2358
33.3884
33.5174
33.6242
33.7102
33.7769
33.8259
33.8591
33.878
33.8847
33.8809
33.8682
33.8482
33.8217
33.7862
33.7415
33.6884
33.6277
33.5603
33.4872
33.4092
33.3273
33.2424
33.1556
33.0677
32.9798
32.8925
32.8064
32.7218
32.639
32.5582
32.4795
32.403
32.3287
32.2567
32.1868
32.1184
32.051
31.9836
31.9146
31.8425
31.7649
31.6789
31.5813
31.4679
31.3338
31.1735
30.9803
30.7472
30.466
30.1283
29.7252
29.2496
28.6949
28.0483
27.2924
26.4188
25.435
24.3592
23.2132
22.0247
20.8297
19.654
18.4805
17.391
16.2597
15.1163
14.3375
13.557
12.7122
11.7405
10.9527
10.366
9.86957
9.35627
9.02238
8.61673
8.40932
8.34946
8.36777
8.11061
7.71162
7.63565
7.23818
7.05466
6.95592
6.8862
6.8317
6.78856
6.75464
6.72855
6.71022
6.70024
6.69873
6.70305
6.71107
6.72101
6.73203
6.74471
6.75969
6.7738
6.77934
6.76935
6.74305
6.7
6.63816
6.54156
6.40586
6.23177
6.02414
5.79772
5.55238
5.2905
5.01655
4.73611
4.45511
4.17929
3.91384
3.6632
3.43174
3.22489
3.05433
13.8359
7.87597
6.53839
5.98463
5.69259
5.52925
5.44332
5.41203
5.42534
5.47998
5.57677
5.71937
5.91011
6.1539
6.45949
6.83384
7.28395
7.81639
8.43509
9.13913
9.92282
10.7749
11.6788
12.6134
13.5561
14.485
15.3824
16.2358
17.0364
17.7803
18.4688
19.1091
19.7189
20.3171
20.9192
21.5349
22.1651
22.8044
23.4462
24.0848
24.7144
25.3302
25.9287
26.5067
27.0613
27.5901
28.0911
28.5628
29.0045
29.4156
29.7961
30.1463
30.4666
30.7579
31.0208
31.2565
31.4658
31.65
31.81
31.9471
32.0624
32.1572
32.2325
32.2897
32.3299
32.3545
32.3645
32.3613
32.3458
32.319
32.2819
32.2352
32.1799
32.115
32.0411
31.9589
31.869
31.7723
31.6694
31.5613
31.4487
31.3325
31.2134
31.0921
30.9692
30.8452
30.7207
30.5959
30.4714
30.3473
30.2239
30.1016
29.9802
29.86
29.7405
29.6213
29.5018
29.3808
29.2569
29.1284
28.9931
28.8484
28.691
28.5174
28.3237
28.1055
27.8579
27.576
27.2546
26.8881
26.4712
25.9971
25.4565
24.8381
24.135
23.3485
22.4873
21.5647
20.5984
19.6081
18.6091
17.6044
16.6169
15.6398
14.6923
13.8559
13.0609
12.282
11.5096
10.8269
10.2474
9.73856
9.2754
8.89923
8.54886
8.28947
8.09567
7.92066
7.68754
7.43673
7.27099
7.05029
6.89671
6.78571
6.6968
6.62248
6.55994
6.5077
6.46497
6.43157
6.40762
6.39293
6.38551
6.38361
6.3857
6.39063
6.39772
6.40599
6.41256
6.41263
6.40175
6.37736
6.33659
6.27551
6.1856
6.06279
5.90558
5.71939
5.51173
5.28313
5.03617
4.77518
4.50564
4.23357
3.96501
3.70563
3.46044
3.23424
3.0323
2.86226
17.252
9.4677
7.69314
6.94656
6.54762
6.32348
6.20448
6.1581
6.16887
6.23032
6.341
6.50134
6.71107
6.97625
7.30342
7.69879
8.16763
8.71329
9.33592
10.0312
10.7899
11.5978
12.4364
13.2853
14.124
14.9354
15.7077
16.4348
17.1162
17.7554
18.3599
18.9403
19.5096
20.0793
20.658
21.2495
21.8534
22.4657
23.0812
23.6947
24.3009
24.8954
25.4744
26.0347
26.5734
27.0882
27.5774
28.0394
28.4734
28.8789
29.2556
29.6036
29.9234
30.2154
30.4804
30.7192
30.9325
31.1215
31.287
31.4301
31.5517
31.6529
31.7346
31.7979
31.8437
31.873
31.8866
31.8854
31.8702
31.8417
31.8007
31.7479
31.684
31.6098
31.5255
31.4316
31.3287
31.2173
31.0982
30.9721
30.8398
30.7018
30.5589
30.4117
30.2608
30.1069
29.9504
29.792
29.6322
29.4716
29.3107
29.1498
28.9894
28.8297
28.6707
28.5125
28.3546
28.1965
28.0373
27.8758
27.7104
27.5392
27.36
27.1702
26.9669
26.7469
26.5066
26.2424
25.95
25.6249
25.2616
24.8535
24.3922
23.8691
23.2778
22.6171
21.8905
21.1057
20.2732
19.405
18.5113
17.5992
16.6825
15.7737
14.8871
14.0457
13.2438
12.4779
11.7475
11.0792
10.4842
9.95456
9.48222
9.07335
8.71081
8.40723
8.14777
7.90898
7.67112
7.44537
7.25573
7.06921
6.91549
6.78896
6.68129
6.58821
6.50766
6.43851
6.38019
6.33246
6.29514
6.26781
6.24891
6.23687
6.23028
6.22784
6.22835
6.23022
6.23084
6.22669
6.21427
6.19039
6.15132
6.09262
6.00843
5.89471
5.74924
5.57723
5.3814
5.16267
4.92359
4.66838
4.40249
4.13208
3.86356
3.60309
3.35627
3.12831
2.92432
2.74979
20.6028
11.0536
8.88092
7.94713
7.4429
7.15856
7.0081
6.94835
6.95744
7.02467
7.14573
7.31493
7.53529
7.81084
8.14583
8.5442
9.00874
9.54009
10.1358
10.7895
11.4908
12.2257
12.9776
13.7295
14.466
15.1754
15.851
16.4911
17.0988
17.68
18.243
18.7968
19.3502
19.9103
20.4814
21.0649
21.6595
22.2619
22.8678
23.4726
24.0717
24.661
25.2369
25.7961
26.336
26.8541
27.3486
27.8181
28.2615
28.6781
29.0675
29.4297
29.7648
30.0731
30.3551
30.6115
30.8428
31.05
31.2338
31.3949
31.5343
31.6528
31.7511
31.8302
31.8907
31.9334
31.959
31.9682
31.9615
31.9397
31.9033
31.8529
31.7893
31.713
31.6252
31.5261
31.4162
31.2961
31.1664
31.0278
30.8808
30.726
30.5642
30.3959
30.2217
30.0425
29.8589
29.6717
29.4816
29.2893
29.0956
28.9013
28.707
28.5133
28.3208
28.1298
27.9403
27.7524
27.5656
27.3795
27.193
27.005
26.8139
26.6179
26.4148
26.2022
25.9771
25.7363
25.4758
25.1911
24.8766
24.5254
24.1299
23.682
23.1756
22.6075
21.9781
21.2909
20.5516
19.7674
18.9457
18.0938
17.2234
16.3485
15.4818
14.6355
13.8164
13.0325
12.2878
11.5944
10.9631
10.3943
9.88489
9.43364
9.03384
8.68493
8.3773
8.09841
7.84036
7.60442
7.39524
7.20374
7.0367
6.89178
6.76483
6.65306
6.55483
6.46914
6.39545
6.33344
6.28271
6.24266
6.21202
6.18933
6.17323
6.1624
6.15544
6.15059
6.14546
6.13712
6.12246
6.09811
6.06012
6.00393
5.92452
5.81761
5.68163
5.51961
5.33204
5.11978
4.88522
4.63238
4.36666
4.09439
3.82231
3.55706
3.30483
3.07117
2.8612
2.67933
23.8007
12.6157
10.0815
8.96048
8.35117
8.00763
7.82504
7.75054
7.75588
7.82612
7.94933
8.12297
8.34759
8.62469
8.95616
9.34362
9.78768
10.2871
10.8382
11.4341
12.0652
12.7196
13.3841
14.0461
14.6946
15.3225
15.9262
16.5066
17.0674
17.6144
18.1547
18.6951
19.2413
19.7976
20.3662
20.9473
21.5391
22.1388
22.7426
23.3465
23.9465
24.5388
25.1199
25.6866
26.2363
26.7666
27.2756
27.7616
28.2235
28.6604
29.0717
29.4571
29.8164
30.1499
30.4577
30.7403
30.9981
31.2318
31.4418
31.6289
31.7937
31.9368
32.059
32.1607
32.2427
32.3056
32.3498
32.3759
32.3845
32.376
32.3509
32.3097
32.2531
32.1815
32.0957
31.9969
31.8854
31.7616
31.6261
31.4793
31.322
31.1547
30.9779
30.7923
30.5987
30.3978
30.1905
29.9776
29.7601
29.5389
29.3151
29.0898
28.864
28.6386
28.4146
28.1927
27.9736
27.7578
27.5455
27.3366
27.1309
26.9277
26.7263
26.5253
26.3231
26.1178
25.9068
25.6872
25.455
25.2058
24.9337
24.632
24.293
23.9091
23.4737
22.9822
22.4324
21.8245
21.1607
20.4448
19.6816
18.8775
18.0424
17.1889
16.3286
15.4726
14.6318
13.8148
13.0328
12.2957
11.6141
10.9925
10.4304
9.92631
9.47658
9.07775
8.7229
8.40404
8.11555
7.85504
7.62151
7.41101
7.22391
7.05814
6.91088
6.77995
6.66382
6.56147
6.47226
6.39571
6.33128
6.27821
6.23543
6.20151
6.17515
6.15504
6.13976
6.12756
6.11623
6.10316
6.08542
6.05968
6.02196
5.96772
5.8921
5.79071
5.66271
5.50833
5.32718
5.11979
4.88824
4.6363
4.36927
4.09356
3.81622
3.54432
3.28456
3.04291
2.82458
2.63356
26.7765
14.1254
11.2547
9.95912
9.24438
8.83881
8.62145
8.52937
8.52823
8.59556
8.71975
8.89597
9.12168
9.39575
9.71775
10.0873
10.5035
10.964
11.4646
11.9995
12.5606
13.1387
13.7242
14.3083
14.8839
15.4468
15.9955
16.5316
17.0587
17.5816
18.1058
18.636
19.1763
19.7291
20.2954
20.8748
21.4654
22.0647
22.6692
23.2755
23.88
24.4789
25.0691
25.6475
26.2113
26.7582
27.2862
27.7934
28.2786
28.7407
29.1788
29.5924
29.9811
30.3449
30.6838
30.9979
31.2875
31.553
31.7947
32.0131
32.2087
32.3819
32.5332
32.6631
32.7721
32.8605
32.9288
32.9775
33.0068
33.0173
33.0093
32.9831
32.9393
32.8782
32.8005
32.7069
32.5987
32.4759
32.3391
32.1887
32.0253
31.8493
31.6615
31.4623
31.2526
31.0332
30.805
30.569
30.3264
30.0784
29.8261
29.571
29.3145
29.0579
28.8025
28.5496
28.3003
28.0557
27.8164
27.583
27.3558
27.1348
26.9197
26.7098
26.504
26.3008
26.098
25.8929
25.6819
25.4605
25.223
24.9628
24.6725
24.3443
23.9713
23.5474
23.0684
22.5319
21.937
21.2844
20.5766
19.8182
19.017
18.1833
17.3281
16.4625
15.5986
14.7478
13.9195
13.1302
12.391
11.7082
11.0846
10.5199
10.0123
9.55817
9.15227
8.78853
8.46193
8.16851
7.9052
7.6687
7.45722
7.26831
7.09945
6.94854
6.81397
6.69456
6.58947
6.49801
6.4195
6.35303
6.29766
6.25194
6.21463
6.18446
6.16003
6.13969
6.1214
6.10275
6.08097
6.05282
6.0144
5.96119
5.88831
5.7919
5.67042
5.52238
5.34677
5.14364
4.91466
4.66328
4.3946
4.11505
3.83187
3.55253
3.28418
3.03323
2.80511
2.60378
29.468
15.5435
12.3699
10.9021
10.0833
9.61531
9.36212
9.25209
9.24239
9.30776
9.4347
9.61456
9.84171
10.1125
10.4245
10.7757
11.1639
11.5864
12.0393
12.5177
13.0155
13.5264
14.0437
14.5619
15.0766
15.5856
16.0889
16.5881
17.0865
17.5879
18.0964
18.6154
19.1475
19.6944
20.2563
20.8324
21.4209
22.0195
22.625
23.2343
23.8439
24.4506
25.0511
25.6424
26.2219
26.7871
27.3359
27.8663
28.3769
28.8663
29.3336
29.7779
30.1987
30.5957
30.9687
31.3175
31.6422
31.9429
32.2199
32.4734
32.7036
32.9108
33.0954
33.2577
33.398
33.5165
33.6136
33.6895
33.7445
33.7789
33.7929
33.7869
33.7611
33.7159
33.6516
33.5684
33.4683
33.3512
33.2177
33.068
32.9028
32.7224
32.5273
32.3183
32.096
31.8613
31.6151
31.3587
31.0932
30.82
30.5406
30.2566
29.9698
29.6818
29.3944
29.1094
28.8282
28.5524
28.2832
28.0217
27.7689
27.5251
27.2907
27.0655
26.8489
26.6399
26.4368
26.2374
26.0382
25.8353
25.6233
25.3958
25.1458
24.8657
24.5478
24.1853
23.7719
23.303
22.775
22.1858
21.5354
20.826
20.0628
19.2538
18.4087
17.5384
16.6556
15.7728
14.9018
14.058
13.2588
12.5115
11.8222
11.1925
10.6219
10.1078
9.64632
9.23227
8.86148
8.52918
8.23121
7.96399
7.72475
7.51052
7.31856
7.14662
6.99287
6.85582
6.73438
6.6276
6.53461
6.45435
6.38592
6.32789
6.27901
6.23804
6.20367
6.17434
6.14819
6.12297
6.09608
6.06441
6.02419
5.97094
5.89996
5.80785
5.69172
5.54926
5.3788
5.17989
4.95368
4.7032
4.43326
4.1502
3.86137
3.57453
3.29725
3.03638
2.79768
2.58534
31.8206
16.8346
13.394
11.7579
10.8368
10.3087
10.0227
9.8961
9.88052
9.94841
10.0818
10.2685
10.5002
10.7709
11.0765
11.4134
11.7787
12.1693
12.5817
13.0122
13.4565
13.9105
14.3701
14.8322
15.2947
15.7569
16.2196
16.6847
17.155
17.6338
18.124
18.6284
19.1488
19.686
20.24
20.8099
21.394
21.9899
22.5949
23.2059
23.8198
24.4334
25.0436
25.6474
26.2423
26.8255
27.395
27.9487
28.4849
29.0021
29.4992
29.9751
30.429
30.8603
31.2687
31.6538
32.0154
32.3535
32.668
32.959
33.2265
33.4707
33.6917
33.8896
34.0646
34.2168
34.3464
34.4536
34.5383
34.601
34.6415
34.6602
34.6571
34.6325
34.5865
34.5195
34.4318
34.325
34.1993
34.0549
33.8922
33.7115
33.5135
33.2985
33.0673
32.8208
32.5599
32.2857
31.9997
31.7034
31.3983
31.0865
30.7699
30.4505
30.1305
29.812
29.497
29.1874
28.885
28.5915
28.308
28.0358
27.7756
27.5277
27.2922
27.0686
26.8557
26.6518
26.4542
26.2594
26.0626
25.8582
25.6394
25.3989
25.1288
24.8214
24.4692
24.0652
23.6037
23.0798
22.4906
21.8358
21.1176
20.3416
19.5153
18.649
17.755
16.847
15.9391
15.0455
14.189
13.3795
12.624
11.9269
11.2899
10.7122
10.1912
9.72302
9.30339
8.92749
8.5906
8.28875
8.01886
7.77712
7.56044
7.36631
7.19249
7.03713
6.89881
6.77627
6.6684
6.57399
6.49207
6.42123
6.36021
6.3078
6.26273
6.22356
6.18859
6.15578
6.12266
6.08632
6.04312
5.98872
5.91907
5.83015
5.71847
5.58106
5.41566
5.22122
4.99832
4.74949
4.47914
4.19341
3.89963
3.60579
3.3198
3.04892
2.79934
2.57564
33.7853
17.9687
14.297
12.5054
11.4895
10.907
10.592
10.4527
10.4371
10.5126
10.657
10.8551
11.0961
11.372
11.677
12.0064
12.3565
12.7238
13.1052
13.498
13.8992
14.3065
14.7178
15.132
15.5486
15.9684
16.3927
16.8239
17.2648
17.7181
18.1864
18.6719
19.1758
19.6989
20.2409
20.8008
21.377
21.9672
22.5688
23.1791
23.7949
24.4133
25.0313
25.6459
26.2543
26.8542
27.443
28.0187
28.5795
29.1236
29.6497
30.1566
30.6433
31.109
31.5529
31.9747
32.3739
32.7503
33.1034
33.4333
33.7398
34.0228
34.2823
34.5181
34.7304
34.9192
35.0843
35.2258
35.3438
35.4382
35.509
35.5563
35.5801
35.5804
35.5572
35.5106
35.4406
35.3487
35.2354
35.1007
34.945
34.7685
34.5717
34.355
34.1189
33.8643
33.5922
33.3035
32.9999
32.6828
32.3541
32.0159
31.6704
31.32
30.9672
30.6143
30.2639
29.9183
29.5798
29.2503
28.9317
28.6256
28.3332
28.0555
27.793
27.5458
27.3134
27.0949
26.8882
26.6906
26.4983
26.3063
26.1087
25.8984
25.6678
25.4085
25.112
24.7697
24.3737
23.9166
23.3928
22.7988
22.1337
21.4
20.6032
19.7516
18.857
17.9339
16.998
16.0683
15.1603
14.292
13.4722
12.7079
12.0034
11.3598
10.7765
10.2506
9.7784
9.35526
8.97643
8.6374
8.33428
8.06288
7.81973
7.60218
7.40734
7.2329
7.07714
6.93842
6.81528
6.70642
6.61057
6.52651
6.45285
6.3884
6.33193
6.28212
6.23742
6.19598
6.15553
6.11336
6.06599
6.00969
5.94024
5.85346
5.74544
5.61266
5.4523
5.2627
5.04385
4.79763
4.52801
4.24077
3.94314
3.6432
3.34913
3.06861
2.80825
2.57316
35.3084
18.91
15.0545
13.1309
12.0343
11.4066
11.0687
10.924
10.9144
11.0024
11.1626
11.377
11.6328
11.92
12.2313
12.5609
12.9042
13.2576
13.618
13.9832
14.3515
14.7216
15.0931
15.4663
15.8422
16.2225
16.6097
17.0064
17.4156
17.84
18.2822
18.744
19.2267
19.7308
20.256
20.8014
21.3653
21.9458
22.5404
23.1464
23.761
24.381
25.0037
25.6262
26.2456
26.8594
27.4651
28.0605
28.6437
29.2128
29.7662
30.3026
30.8207
31.3196
31.7984
32.2563
32.6927
33.1072
33.4992
33.8685
34.2147
34.5374
34.8366
35.1119
35.3633
35.5904
35.7932
35.9716
36.1254
36.2544
36.3586
36.4378
36.4918
36.5207
36.5242
36.5023
36.455
36.3821
36.2855
36.165
36.0208
35.8529
35.6618
35.4476
35.2109
34.9523
34.6727
34.3732
34.0551
33.7202
33.3703
33.0078
32.635
32.2546
31.8693
31.482
31.0954
30.7123
30.3354
29.967
29.6095
29.2649
28.9348
28.6208
28.324
28.0451
27.7843
27.5414
27.3153
27.1042
26.9054
26.7148
26.5274
26.337
26.1363
25.9167
25.6692
25.384
25.0511
24.6612
24.2055
23.6776
23.0732
22.3914
21.6347
20.8101
19.9279
19.0038
18.0555
17.0992
16.1502
15.2296
14.3499
13.521
12.7498
12.04
11.3929
10.8071
10.2796
9.80639
9.38279
9.00405
8.66565
8.36315
8.09252
7.85034
7.63349
7.43909
7.26533
7.10996
6.97122
6.84755
6.73749
6.63984
6.55313
6.47613
6.40766
6.34647
6.2912
6.24019
6.19133
6.14225
6.08984
6.03047
5.96009
5.87442
5.76927
5.6407
5.48536
5.30099
5.08692
4.84439
4.57676
4.2894
3.98928
3.68445
3.3833
3.09384
2.82315
2.57691
36.3422
19.6231
15.6493
13.6288
12.4724
11.8105
11.46
11.3173
11.3193
11.4248
11.6055
11.8412
12.1171
12.4215
12.7458
13.083
13.4278
13.776
14.1247
14.4719
14.8163
15.1579
15.4972
15.8356
16.1753
16.519
16.8699
17.2314
17.6068
17.9991
18.4111
18.8446
19.301
19.781
20.2843
20.8101
21.357
21.9232
22.5063
23.1037
23.7127
24.3304
24.954
25.5806
26.2074
26.8317
27.451
28.063
28.6657
29.2569
29.835
30.3985
30.9459
31.4761
31.988
32.4805
32.9531
33.4048
33.8351
34.2434
34.6291
34.9919
35.3311
35.6466
35.9378
36.2045
36.4464
36.6632
36.8547
37.0204
37.1602
37.2738
37.361
37.4214
37.4548
37.461
37.4397
37.3906
37.3148
37.2126
37.084
36.929
36.7477
36.5404
36.3072
36.0487
35.7657
35.459
35.13
34.7805
34.4123
34.0279
33.6298
33.221
32.8044
32.3832
31.9605
31.5394
31.1229
30.7138
30.3147
29.9281
29.5561
29.2006
28.8634
28.5458
28.2488
27.9728
27.7179
27.4832
27.2671
27.0669
26.8787
26.6973
26.5159
26.3265
26.1198
25.8851
25.6113
25.2867
24.9003
24.4421
23.9046
23.2834
22.5783
21.7936
20.9404
20.0326
19.0849
18.1137
17.1363
16.1717
15.239
14.3504
13.5157
12.7414
12.0307
11.3842
10.8
10.275
9.80461
9.38418
9.0088
8.67366
8.37427
8.10662
7.86711
7.65254
7.46029
7.28786
7.13319
6.99442
6.86988
6.75838
6.65829
6.56834
6.48737
6.41418
6.34761
6.2862
6.22813
6.17119
6.11262
6.04905
5.97659
5.891
5.78791
5.66305
5.51262
5.33379
5.12519
4.88739
4.62307
4.33705
4.03595
3.72768
3.4207
3.1233
2.84302
2.5861
36.7705
20.08
16.0712
13.9947
12.8017
12.1236
11.7724
11.6404
11.6606
11.7891
11.9953
12.2571
12.5578
12.8845
13.2273
13.5782
13.9312
14.2816
14.6265
14.9636
15.2923
15.6128
15.9266
16.2359
16.5437
16.8537
17.1697
17.4958
17.8359
18.1936
18.5718
18.9729
19.3984
19.8492
20.3255
20.8266
21.3514
21.8981
22.4646
23.0485
23.6472
24.258
24.8781
25.5045
26.1344
26.7652
27.3942
28.019
28.6375
29.2474
29.8471
30.4347
31.0087
31.5677
32.1104
32.6357
33.1426
33.6301
34.0975
34.5439
34.9686
35.371
35.7502
36.1059
36.4374
36.7442
37.026
37.2822
37.5123
37.7161
37.893
38.0427
38.1646
38.2586
38.3241
38.3607
38.3681
38.3458
38.2936
38.2126
38.1026
37.9635
37.7952
37.5978
37.3712
37.1159
36.8323
36.5213
36.1842
35.8225
35.4383
35.0341
34.6126
34.1769
33.7303
33.2761
32.8178
32.3587
31.9022
31.4514
31.0092
30.5784
30.1616
29.7612
29.3792
29.0176
28.6781
28.362
28.0703
27.8033
27.5606
27.3408
27.1413
26.958
26.7854
26.6161
26.4409
26.2491
26.0284
25.7656
25.4473
25.0606
24.5949
24.0426
23.4001
22.6718
21.864
20.9868
20.0538
19.0815
18.0883
17.0924
16.1169
15.1766
14.2844
13.4495
12.6778
11.9718
11.3312
10.7539
10.2359
9.77274
9.35928
8.99048
8.66142
8.36759
8.10489
7.86964
7.65864
7.46904
7.29838
7.14449
7.00544
6.8799
6.7662
6.66301
6.56917
6.4836
6.40521
6.33272
6.26459
6.19888
6.13313
6.06426
5.98862
5.90208
5.8002
5.67848
5.53273
5.35959
5.15704
4.92489
4.66513
4.38193
4.08144
3.7713
3.45993
3.15582
2.86692
2.60002
36.6295
20.2718
16.3002
14.2132
13.0178
12.3484
12.0148
11.9065
11.9546
12.1132
12.3504
12.6425
12.9718
13.3244
13.6893
14.0579
14.4236
14.7815
15.1282
15.4613
15.7802
16.0856
16.3794
16.6645
16.9444
17.2235
17.5063
17.7975
18.1015
18.4225
18.7641
19.1289
19.519
19.9358
20.3796
20.8504
21.3472
21.8686
22.4128
22.9775
23.5604
24.1588
24.7701
25.3919
26.0204
26.6531
27.2875
27.9211
28.5517
29.1769
29.795
30.4039
31.002
31.5876
32.1594
32.7158
33.2559
33.7784
34.2823
34.7665
35.2302
35.6724
36.0922
36.4888
36.8615
37.2096
37.5324
37.8294
38.0998
38.3431
38.5587
38.746
38.9044
39.0334
39.1325
39.2011
39.2387
39.2447
39.2182
39.1599
39.0698
38.9478
38.7937
38.6072
38.3884
38.1374
37.8544
37.5402
37.196
36.8233
36.4242
36.0013
35.5574
35.0957
34.6199
34.1335
33.6401
33.1435
32.6472
32.1546
31.6689
31.1931
30.7301
30.2825
29.853
29.444
29.0577
28.6964
28.3619
28.0557
27.7785
27.5304
27.3101
27.1151
26.9411
26.7817
26.6285
26.4709
26.2962
26.0901
25.8374
25.5231
25.1336
24.6578
24.0914
23.4323
22.6828
21.8504
20.947
19.9887
18.9937
17.9809
16.9741
15.9917
15.0495
14.1596
13.3306
12.5673
11.8715
11.2421
10.6761
10.1694
9.71701
9.3136
8.95398
8.63318
8.34661
8.09012
7.86
7.65295
7.4661
7.29693
7.14323
7.00351
6.87602
6.75934
6.65234
6.55396
6.46323
6.37905
6.30011
6.22477
6.15087
6.07567
5.99579
5.90727
5.80571
5.68646
5.54505
5.37761
5.1815
4.9558
4.70172
4.42273
4.12441
3.81399
3.49977
3.19034
2.89394
2.61793
36.0853
20.2626
16.297
14.2472
13.0977
12.473
12.1811
12.1117
12.1963
12.3892
12.6582
12.9797
13.3355
13.7118
14.0971
14.4827
14.8614
15.2282
15.5795
15.913
16.2279
16.525
16.8061
17.0743
17.3335
17.5883
17.8436
18.1047
18.3764
18.6633
18.9695
19.2984
19.6525
20.0337
20.4428
20.8802
21.3454
21.8374
22.3547
22.8953
23.457
24.0375
24.6341
25.2442
25.8648
26.4933
27.1271
27.7636
28.4005
29.0354
29.6663
30.2913
30.9085
31.5163
32.1124
32.6956
33.2646
33.8181
34.3549
34.8736
35.3733
35.8527
36.3108
36.7463
37.1585
37.5464
37.9092
38.2461
38.5562
38.8388
39.0929
39.318
39.5131
39.6777
39.8111
39.9126
39.9815
40.017
40.0182
39.9845
39.9164
39.8137
39.6761
39.5033
39.295
39.0513
38.7724
38.4588
38.1114
37.732
37.3224
36.8853
36.4237
35.941
35.4409
34.9272
34.4038
33.8744
33.3429
32.8128
32.2874
31.7699
31.2635
30.7709
30.2951
29.8389
29.4051
28.9967
28.6162
28.2662
27.9486
27.6648
27.415
27.1982
27.0116
26.8502
26.7066
26.5711
26.4312
26.2722
26.0782
25.8321
25.5176
25.1221
24.6354
24.0512
23.3684
22.5914
21.7301
20.7989
19.816
18.8009
17.7752
16.7623
15.78
14.8434
13.9637
13.1484
12.401
11.7222
11.1101
10.5611
10.0704
9.63283
9.24291
8.89532
8.58506
8.3075
8.05848
7.83424
7.63151
7.44739
7.2794
7.12579
6.98474
6.85476
6.73467
6.62346
6.52024
6.42408
6.3339
6.24833
6.16554
6.08314
5.99807
5.90659
5.80441
5.68688
5.54927
5.38733
5.19783
4.97914
4.73168
4.45815
4.16346
3.85436
3.53888
3.22561
2.92301
2.63891
35.1464
19.8738
16.0583
14.1418
13.0951
12.5465
12.3117
12.2866
12.4068
12.6292
12.9235
13.2668
13.642
14.0351
14.4352
14.8333
15.2226
15.5976
15.9544
16.2908
16.6059
16.9
17.1747
17.433
17.6788
17.9166
18.1516
18.3891
18.6343
18.8923
19.1676
19.4639
19.7846
20.1318
20.507
20.9111
21.3441
21.8053
22.2937
22.8076
23.3451
23.904
24.4819
25.0762
25.6843
26.3034
26.931
27.5645
28.2015
28.8397
29.4768
30.1108
30.7397
31.3618
31.9751
32.578
33.1691
33.7469
34.3099
34.8568
35.3861
35.8968
36.3875
36.8564
37.3028
37.7256
38.1238
38.4965
38.8425
39.1611
39.4511
39.7115
39.9415
40.1402
40.3069
40.4408
40.541
40.6066
40.6366
40.6299
40.5864
40.506
40.3884
40.2331
40.0399
39.8085
39.5391
39.2319
38.8878
38.5083
38.0953
37.6516
37.1802
36.6846
36.1684
35.6358
35.0905
34.5365
33.9778
33.418
32.8603
32.3083
31.7648
31.2331
30.7161
30.2169
29.7388
29.2852
28.8594
28.4648
28.1044
27.7807
27.4954
27.249
27.0402
26.8656
26.7194
26.5929
26.4749