/*--------------------------------*- C++ -*----------------------------------*\
  =========                 |
  \\      /  F ield         | OpenFOAM: The Open Source CFD Toolbox
   \\    /   O peration     | Website:  https://openfoam.org
    \\  /    A nd           | Version:  9
     \\/     M anipulation  |
\*---------------------------------------------------------------------------*/
FoamFile
{
    format      ascii;
    class       volScalarField;
    location    "0.19";
    object      k;
}
// * * * * * * * * * * * * * * * * * * * * * * * * * * * * * * * * * * * * * //

dimensions      [0 2 -2 0 0 0 0];

internalField   nonuniform List<scalar> 
12225
(
0.267038
0.161054
0.104661
0.0751402
0.059325
0.0502456
0.0444392
0.0402902
0.0370749
0.0344604
0.0322768
0.0304251
0.028843
0.027502
0.0264808
0.0260311
0.0268699
0.0305426
0.336729
0.251593
0.197833
0.166012
0.146185
0.132742
0.12284
0.115064
0.108697
0.103354
0.0988006
0.0948803
0.0914856
0.0885579
0.0861406
0.0841932
0.0836241
0.0831623
0.345787
0.286614
0.240531
0.208029
0.185093
0.168379
0.155657
0.145555
0.137262
0.130292
0.124338
0.119187
0.114689
0.110738
0.107297
0.10435
0.10277
0.103945
0.350427
0.305438
0.266205
0.235364
0.211692
0.193412
0.179
0.16734
0.15768
0.149524
0.142533
0.13647
0.131162
0.126485
0.122373
0.118882
0.116678
0.117092
0.353339
0.316926
0.283182
0.254761
0.231614
0.212892
0.197636
0.185024
0.174435
0.165416
0.157641
0.150869
0.144924
0.139678
0.135059
0.131156
0.128464
0.127921
0.355312
0.324483
0.295037
0.269101
0.247056
0.228564
0.213056
0.199965
0.188806
0.179201
0.170856
0.163547
0.157106
0.15141
0.146392
0.142138
0.139008
0.137615
0.356692
0.329685
0.303591
0.279943
0.259216
0.241331
0.225969
0.21275
0.201315
0.19136
0.182636
0.174946
0.168136
0.162096
0.156772
0.152206
0.148666
0.146539
0.357671
0.333359
0.309876
0.288235
0.268856
0.251768
0.236802
0.223707
0.212225
0.202119
0.193184
0.185252
0.178189
0.1719
0.166336
0.161509
0.157599
0.154849
0.358366
0.335983
0.314529
0.2946
0.276498
0.260281
0.245855
0.233057
0.221699
0.211599
0.202593
0.194542
0.187331
0.180876
0.175135
0.170112
0.165883
0.162624
0.358857
0.337857
0.317971
0.29947
0.282525
0.267176
0.253361
0.240966
0.229853
0.21988
0.210918
0.202851
0.195581
0.189038
0.183179
0.177998
0.173536
0.169892
0.3592
0.339186
0.320495
0.303161
0.28723
0.272699
0.259512
0.247577
0.236786
0.227028
0.218197
0.210196
0.202945
0.19638
0.19046
0.18517
0.180528
0.176602
0.359416
0.340038
0.322168
0.305687
0.290547
0.276695
0.264064
0.252567
0.242112
0.232603
0.22395
0.216071
0.208894
0.202364
0.19644
0.191103
0.18636
0.182267
0.359569
0.34065
0.323406
0.307612
0.293139
0.279891
0.267777
0.256711
0.246603
0.237369
0.228927
0.221207
0.214144
0.207687
0.201801
0.196461
0.191671
0.187474
0.359686
0.341124
0.324392
0.309196
0.295336
0.282671
0.271085
0.260477
0.25076
0.241851
0.233675
0.226169
0.219273
0.212943
0.207142
0.201847
0.19706
0.192817
0.359767
0.341458
0.325112
0.310392
0.297052
0.284909
0.273821
0.26367
0.254361
0.245809
0.237942
0.230697
0.224022
0.217872
0.212212
0.20702
0.202296
0.198069
0.359817
0.341668
0.325581
0.311202
0.298259
0.286539
0.275877
0.266139
0.257217
0.249022
0.241479
0.234524
0.228105
0.222178
0.216708
0.211673
0.207071
0.202923
0.359844
0.341782
0.325845
0.311677
0.298995
0.287573
0.277229
0.267816
0.259216
0.251332
0.244084
0.237406
0.231243
0.225551
0.220293
0.215446
0.211005
0.206984
0.359855
0.341827
0.325956
0.311889
0.29934
0.288079
0.277917
0.268701
0.260308
0.252634
0.245596
0.239126
0.233164
0.227664
0.222589
0.217912
0.213626
0.209737
0.359852
0.341816
0.325936
0.311862
0.299311
0.288051
0.277897
0.268699
0.260331
0.252694
0.245704
0.239289
0.233392
0.227963
0.222964
0.218366
0.214158
0.21034
0.359826
0.34171
0.325701
0.311449
0.298679
0.287174
0.276763
0.267307
0.258695
0.250831
0.243637
0.237044
0.230996
0.225441
0.22034
0.215661
0.211388
0.207521
0.359766
0.341465
0.325165
0.310533
0.297324
0.285352
0.274474
0.264572
0.255546
0.247312
0.239793
0.232921
0.226633
0.220878
0.215611
0.210796
0.206412
0.202458
0.359638
0.340941
0.324052
0.308708
0.294734
0.282007
0.270422
0.259883
0.2503
0.241588
0.233666
0.226462
0.21991
0.213943
0.208508
0.203562
0.199079
0.195053
0.359385
0.339926
0.321989
0.30548
0.290359
0.276581
0.264081
0.252773
0.242562
0.233348
0.225034
0.217529
0.210749
0.204625
0.199086
0.194074
0.189554
0.185519
0.35893
0.338115
0.318476
0.300246
0.283577
0.2685
0.254961
0.242852
0.232044
0.222401
0.213795
0.206105
0.199223
0.193053
0.187521
0.182554
0.1781
0.174149
0.358163
0.335069
0.312839
0.292253
0.273666
0.257142
0.242571
0.229769
0.218528
0.208648
0.199947
0.192267
0.185467
0.17943
0.174056
0.169272
0.165013
0.161258
0.356934
0.330101
0.304085
0.280453
0.25969
0.24175
0.226353
0.213149
0.201796
0.191997
0.1835
0.176097
0.16962
0.163926
0.158901
0.154454
0.150527
0.147085
0.355031
0.321981
0.290534
0.263195
0.240252
0.221249
0.205528
0.192455
0.181495
0.172226
0.164321
0.157527
0.151648
0.146532
0.142054
0.138117
0.134651
0.131638
0.352125
0.308122
0.268939
0.237527
0.212979
0.193817
0.178703
0.166592
0.156723
0.148556
0.141706
0.135895
0.13092
0.12663
0.122904
0.11965
0.116797
0.114322
0.346611
0.281429
0.23199
0.197272
0.172813
0.155173
0.142065
0.132016
0.124086
0.117679
0.112402
0.107989
0.104255
0.101068
0.0983338
0.0959743
0.0939219
0.0921452
0.300481
0.214649
0.158308
0.121105
0.0964082
0.0798805
0.0686228
0.0607203
0.0549623
0.0506074
0.0472032
0.0444689
0.0422253
0.0403557
0.0387869
0.0374616
0.0363339
0.0353848
0.0109747
0.0315789
0.0437015
0.0533986
0.0612222
0.0676317
0.0729511
0.0774084
0.0811765
0.0843962
0.0871935
0.0896949
0.0920478
0.0944224
0.0969865
0.0997947
0.102922
0.106439
0.110395
0.114793
0.119565
0.124547
0.129442
0.133942
0.137665
0.140104
0.140696
0.139248
0.137262
0.137256
0.1302
0.130589
0.132285
0.136282
0.138576
0.139511
0.13991
0.141491
0.142057
0.14977
0.158448
0.16716
0.175772
0.184177
0.192315
0.200145
0.20764
0.214783
0.221568
0.227997
0.234074
0.239808
0.245209
0.25029
0.255064
0.259543
0.26374
0.267666
0.271333
0.274752
0.277931
0.280881
0.283611
0.28613
0.288448
0.290577
0.292533
0.294336
0.296018
0.297627
0.299236
0.300719
0.302057
0.303261
0.304341
0.305305
0.306158
0.306906
0.307552
0.308101
0.308555
0.308916
0.309187
0.309371
0.309472
0.309495
0.309436
0.309292
0.309066
0.308754
0.308369
0.307912
0.30738
0.306768
0.306072
0.305283
0.30439
0.303381
0.302239
0.300947
0.299481
0.297817
0.295922
0.29376
0.291295
0.288507
0.285534
0.283445
0.282301
0.2803
0.276799
0.27122
0.263622
0.255232
0.24686
0.23831
0.229826
0.220858
0.211337
0.201468
0.191833
0.183605
0.188271
0.168084
0.180884
0.167531
0.160521
0.147762
0.168603
0.172705
0.169929
0.164639
0.17457
0.161643
0.17216
0.167369
0.160201
0.148422
0.151345
0.169149
0.153985
0.17319
0.173754
0.173389
0.173227
0.173336
0.173669
0.174137
0.174664
0.175236
0.175884
0.176616
0.177325
0.177933
0.178387
0.178712
0.179073
0.179703
0.180541
0.181045
0.180648
0.179683
0.178552
0.177716
0.175469
0.171869
0.167132
0.161345
0.155132
0.148607
0.141728
0.134595
0.127333
0.120069
0.112922
0.105987
0.0993252
0.0929524
0.0867627
0.0806632
0.0165404
0.0448306
0.0618351
0.0739772
0.0833786
0.0908913
0.0970007
0.102042
0.10627
0.109894
0.113095
0.116044
0.118912
0.121869
0.125017
0.128477
0.132366
0.136789
0.141817
0.147473
0.153715
0.160403
0.167323
0.174229
0.180907
0.18699
0.192631
0.19817
0.204025
0.209642
0.214403
0.220869
0.22821
0.235209
0.242048
0.24947
0.258047
0.267678
0.280397
0.293096
0.304993
0.316673
0.328521
0.340425
0.352244
0.363869
0.375215
0.386212
0.396807
0.406964
0.416656
0.425872
0.434606
0.44286
0.450643
0.457966
0.464843
0.47129
0.477322
0.482956
0.488207
0.493092
0.497624
0.501819
0.50569
0.50925
0.512513
0.515491
0.518195
0.52064
0.522836
0.524912
0.526841
0.528635
0.530308
0.531874
0.533349
0.534743
0.53607
0.537339
0.53856
0.539741
0.54089
0.542012
0.54311
0.544188
0.545248
0.546296
0.547347
0.548423
0.549534
0.550686
0.551886
0.553134
0.554431
0.555775
0.55716
0.558579
0.560021
0.561469
0.562902
0.564292
0.565599
0.566772
0.567737
0.568401
0.568654
0.568386
0.567287
0.564764
0.560393
0.553761
0.54401
0.530956
0.515544
0.498254
0.478956
0.458745
0.437611
0.415978
0.394716
0.373379
0.351069
0.333495
0.319081
0.297295
0.280714
0.269081
0.263681
0.254081
0.245519
0.240225
0.235313
0.229792
0.226343
0.22142
0.216381
0.21112
0.210776
0.214037
0.209963
0.214144
0.213857
0.213026
0.212408
0.212093
0.212046
0.212206
0.212521
0.212968
0.213544
0.214249
0.215003
0.215744
0.216431
0.217068
0.217723
0.21848
0.219261
0.219737
0.219573
0.218868
0.217784
0.216442
0.214004
0.210347
0.205533
0.199609
0.193079
0.186023
0.178458
0.170498
0.162286
0.15398
0.145728
0.137663
0.129881
0.122453
0.115372
0.1088
0.0253127
0.0599945
0.0796045
0.0932148
0.103639
0.111975
0.11881
0.124524
0.1294
0.133669
0.137539
0.141205
0.144857
0.148663
0.152708
0.157153
0.16215
0.167825
0.174258
0.181472
0.189442
0.198114
0.207216
0.216529
0.225868
0.235117
0.244364
0.25378
0.263319
0.272709
0.281963
0.291512
0.301278
0.311164
0.321532
0.332868
0.345418
0.359023
0.373712
0.388971
0.404375
0.419799
0.435207
0.450485
0.465491
0.480102
0.494223
0.507784
0.520738
0.533055
0.544723
0.555739
0.566113
0.575858
0.584994
0.59354
0.601521
0.608958
0.615874
0.622293
0.628233
0.633717
0.638764
0.643392
0.647619
0.651464
0.654942
0.658071
0.660864
0.663335
0.665492
0.66742
0.669183
0.670764
0.67217
0.673411
0.674501
0.675454
0.676284
0.677006
0.677634
0.67818
0.678655
0.679067
0.679422
0.679728
0.680003
0.680264
0.680526
0.680799
0.681092
0.681412
0.681764
0.682149
0.682563
0.682999
0.683443
0.683874
0.684265
0.684578
0.684763
0.684757
0.684484
0.683849
0.682741
0.681029
0.678569
0.675198
0.670714
0.664881
0.657557
0.648702
0.638107
0.625427
0.610602
0.593809
0.575246
0.555296
0.534181
0.512173
0.490122
0.467061
0.444821
0.423514
0.403637
0.382625
0.36381
0.347748
0.334316
0.320917
0.30906
0.299407
0.290268
0.282963
0.27574
0.269764
0.264468
0.258941
0.25599
0.254499
0.251665
0.251061
0.249587
0.248074
0.246849
0.245962
0.245385
0.245075
0.244991
0.245108
0.245409
0.245883
0.246466
0.247104
0.247753
0.248401
0.249062
0.249748
0.250367
0.25069
0.2505
0.249782
0.248561
0.246806
0.244052
0.240134
0.235032
0.228771
0.221786
0.214105
0.205785
0.196953
0.187774
0.178425
0.169086
0.159922
0.151069
0.142639
0.134713
0.127503
0.0355133
0.0754489
0.0972964
0.112285
0.123687
0.132812
0.140339
0.146696
0.152195
0.157094
0.16162
0.165987
0.1704
0.174935
0.179774
0.185087
0.191035
0.197755
0.205368
0.213834
0.223108
0.233091
0.24361
0.254468
0.265476
0.276509
0.287558
0.298694
0.309942
0.321244
0.332599
0.344151
0.356078
0.36856
0.381836
0.396144
0.411552
0.427906
0.444992
0.462521
0.480202
0.497833
0.515277
0.532408
0.54911
0.565283
0.580853
0.595765
0.609983
0.623488
0.636274
0.648342
0.659706
0.670381
0.680388
0.689749
0.698487
0.706627
0.714192
0.721204
0.727687
0.733662
0.73915
0.74417
0.748741
0.752882
0.756611
0.759945
0.762898
0.765485
0.76772
0.769616
0.771272
0.772702
0.773903
0.774883
0.775652
0.776224
0.776612
0.77683
0.776893
0.776813
0.776601
0.776263
0.775813
0.775268
0.774643
0.773955
0.773216
0.772437
0.771629
0.770799
0.769953
0.76909
0.76821
0.767302
0.766353
0.76534
0.764234
0.762993
0.761566
0.75989
0.757887
0.75547
0.752537
0.748975
0.744665
0.739481
0.733294
0.725979
0.717454
0.707665
0.696496
0.683742
0.669255
0.653035
0.635195
0.615948
0.595525
0.574224
0.552421
0.529843
0.507085
0.485155
0.463696
0.442334
0.422477
0.404373
0.387832
0.372444
0.358632
0.346471
0.335434
0.326074
0.317491
0.310247
0.303852
0.297758
0.29318
0.289572
0.286061
0.283471
0.28097
0.278716
0.276825
0.275312
0.274148
0.27329
0.272715
0.272396
0.27231
0.272433
0.272719
0.273112
0.273567
0.274055
0.274561
0.275056
0.275443
0.27555
0.275211
0.274355
0.272929
0.270832
0.267768
0.263567
0.258155
0.251587
0.24418
0.235947
0.226968
0.21738
0.20736
0.197107
0.186826
0.176713
0.166941
0.157662
0.149013
0.141209
0.0466004
0.0910006
0.115063
0.131441
0.143833
0.153765
0.162
0.169012
0.17514
0.180661
0.185815
0.190827
0.195822
0.200955
0.206435
0.212425
0.219077
0.22652
0.234835
0.244033
0.254063
0.264812
0.276116
0.287789
0.299665
0.311634
0.323677
0.335848
0.348216
0.360833
0.373771
0.387163
0.401179
0.415966
0.431641
0.448265
0.465791
0.484054
0.502842
0.521922
0.541065
0.560085
0.578835
0.59719
0.61505
0.632331
0.648969
0.664916
0.680142
0.69463
0.708372
0.72137
0.733635
0.745179
0.756022
0.766182
0.775681
0.784542
0.792787
0.800437
0.807515
0.814041
0.820035
0.825517
0.830506
0.835018
0.839071
0.842681
0.845862
0.84863
0.850998
0.852979
0.854589
0.855926
0.856983
0.857763
0.858274
0.858527
0.858534
0.85831
0.857866
0.857215
0.856365
0.85533
0.854125
0.852766
0.851269
0.84965
0.847923
0.846101
0.844196
0.84222
0.840178
0.838076
0.835915
0.833688
0.831387
0.828992
0.82648
0.823816
0.820957
0.81785
0.814431
0.810631
0.806368
0.801558
0.79611
0.789933
0.782936
0.775032
0.766141
0.756177
0.74501
0.732467
0.718407
0.702778
0.685629
0.667088
0.647335
0.626592
0.605075
0.582818
0.560164
0.537712
0.515429
0.493567
0.47274
0.453178
0.434889
0.417916
0.402459
0.388532
0.376
0.364943
0.35507
0.346484
0.338868
0.331945
0.326127
0.321148
0.316668
0.312845
0.30942
0.306398
0.303802
0.301623
0.299828
0.298379
0.297253
0.296428
0.295877
0.295569
0.295468
0.295516
0.295667
0.295881
0.296123
0.296343
0.296443
0.296283
0.295722
0.294658
0.292994
0.290597
0.287247
0.282775
0.277074
0.270248
0.262473
0.253772
0.244231
0.233993
0.223246
0.212204
0.201095
0.190145
0.179559
0.169526
0.160219
0.151843
0.0578785
0.106436
0.13282
0.150638
0.164032
0.174783
0.183746
0.191431
0.198202
0.20435
0.210109
0.21567
0.221145
0.22675
0.232684
0.23912
0.246208
0.254063
0.262754
0.27229
0.282624
0.293652
0.305237
0.317229
0.329506
0.341998
0.354705
0.367687
0.381033
0.394837
0.409197
0.424222
0.440015
0.456646
0.474136
0.492452
0.511494
0.531104
0.551095
0.571272
0.59145
0.611465
0.631181
0.650484
0.669279
0.68749
0.705057
0.721936
0.738095
0.753515
0.768185
0.782104
0.795276
0.807712
0.819424
0.830429
0.840745
0.85039
0.859385
0.867749
0.875502
0.882663
0.889249
0.89528
0.900771
0.90574
0.910201
0.914169
0.917659
0.920683
0.923254
0.925385
0.927088
0.928396
0.929377
0.930026
0.930346
0.930348
0.930041
0.929438
0.92855
0.92739
0.925968
0.924297
0.922395
0.920277
0.917961
0.915463
0.9128
0.909989
0.907044
0.903982
0.900813
0.897549
0.894196
0.890756
0.887225
0.883596
0.879853
0.875972
0.871922
0.867665
0.863154
0.858336
0.85315
0.847531
0.841411
0.834716
0.82737
0.819291
0.81039
0.800554
0.789641
0.777489
0.763959
0.748976
0.73254
0.714719
0.695632
0.675431
0.654265
0.632255
0.609677
0.586957
0.564266
0.541745
0.519958
0.499177
0.479466
0.460971
0.443927
0.428399
0.414338
0.401709
0.390416
0.380423
0.371531
0.363563
0.356597
0.350461
0.344975
0.340133
0.335823
0.332009
0.328677
0.325798
0.323339
0.321262
0.319542
0.318159
0.317085
0.316283
0.315723
0.315349
0.31511
0.314961
0.314856
0.314733
0.314496
0.314022
0.313182
0.31186
0.309934
0.307258
0.303639
0.298911
0.292958
0.285907
0.277817
0.268718
0.258699
0.247902
0.236522
0.224785
0.212941
0.201237
0.189911
0.179182
0.169249
0.160307
0.0689634
0.121399
0.15027
0.169544
0.183958
0.195563
0.205282
0.213671
0.221107
0.227878
0.234227
0.240248
0.246165
0.252182
0.258483
0.265231
0.272566
0.280594
0.289383
0.298949
0.309262
0.32025
0.331817
0.343866
0.356323
0.369155
0.382381
0.396062
0.410282
0.425129
0.440686
0.457022
0.474179
0.492166
0.510949
0.530452
0.55056
0.571126
0.591986
0.612976
0.633939
0.654731
0.675229
0.695326
0.714934
0.73398
0.752404
0.770161
0.787217
0.803548
0.81914
0.833984
0.848082
0.861437
0.874057
0.885953
0.897141
0.907633
0.917447
0.926599
0.935105
0.942982
0.950245
0.956911
0.962993
0.968508
0.973467
0.977884
0.981771
0.98514
0.988002
0.990369
0.99225
0.993653
0.994645
0.995248
0.995461
0.995292
0.994751
0.993848
0.992594
0.991
0.989078
0.986843
0.984311
0.9815
0.978426
0.97511
0.97157
0.967828
0.963902
0.959813
0.955581
0.951221
0.946749
0.942176
0.937508
0.932748
0.927891
0.922927
0.91784
0.912605
0.907192
0.901563
0.895674
0.889477
0.882915
0.875925
0.868435
0.86036
0.851599
0.842026
0.831492
0.819838
0.806923
0.792652
0.776988
0.759947
0.741593
0.722017
0.70133
0.679663
0.657254
0.634433
0.611429
0.588436
0.565779
0.543848
0.522815
0.502859
0.484251
0.46712
0.451464
0.437255
0.424455
0.413003
0.402766
0.393608
0.385472
0.378214
0.371708
0.365895
0.360698
0.35607
0.351972
0.348367
0.345216
0.342483
0.340136
0.338156
0.336512
0.335166
0.334093
0.333233
0.332536
0.331953
0.331432
0.330906
0.330282
0.329448
0.328281
0.326658
0.324447
0.321493
0.317613
0.312635
0.306481
0.299223
0.290864
0.281432
0.271007
0.259733
0.247803
0.235455
0.222951
0.210563
0.198553
0.187167
0.176625
0.167116
0.0795768
0.13562
0.167079
0.187777
0.203165
0.215574
0.226062
0.235199
0.243353
0.250807
0.257694
0.264229
0.270619
0.277049
0.283686
0.290679
0.298159
0.306231
0.314966
0.324399
0.334527
0.34532
0.356731
0.368711
0.381228
0.394279
0.407892
0.42212
0.43703
0.452686
0.469139
0.486419
0.504531
0.523444
0.543098
0.563402
0.584238
0.605473
0.626963
0.648563
0.670138
0.691558
0.71271
0.733496
0.753828
0.773636
0.792859
0.811449
0.829368
0.846589
0.86309
0.87886
0.893891
0.908183
0.921738
0.934562
0.946664
0.958054
0.968744
0.978746
0.988074
0.99674
1.00476
1.01214
1.0189
1.02504
1.03059
1.03555
1.03993
1.04373
1.04698
1.04968
1.05184
1.05346
1.05456
1.05521
1.05542
1.05517
1.05449
1.05338
1.05185
1.04991
1.04757
1.04485
1.04177
1.03834
1.03458
1.03051
1.02616
1.02155
1.0167
1.01164
1.00639
1.00099
0.995449
0.989793
0.984039
0.9782
0.972285
0.966298
0.960236
0.954089
0.947842
0.941473
0.934951
0.928241
0.921295
0.914058
0.906462
0.898418
0.889821
0.88054
0.870425
0.859316
0.84707
0.833572
0.818753
0.802584
0.785075
0.766267
0.746232
0.725082
0.703009
0.680279
0.65712
0.633756
0.610477
0.587526
0.565265
0.543932
0.523814
0.505088
0.487812
0.471998
0.457638
0.444682
0.433035
0.422583
0.413222
0.40482
0.397262
0.390469
0.384367
0.378897
0.374008
0.369654
0.36579
0.362377
0.359379
0.356771
0.354524
0.352595
0.350962
0.349566
0.348356
0.347282
0.346287
0.345304
0.344245
0.343005
0.341465
0.339502
0.336978
0.333733
0.32959
0.324376
0.318052
0.310608
0.302022
0.292312
0.281552
0.269875
0.257475
0.244592
0.2315
0.218489
0.205845
0.193834
0.182694
0.172618
0.0894696
0.14882
0.182794
0.204767
0.221079
0.234315
0.245595
0.255502
0.26441
0.272527
0.280052
0.287197
0.294144
0.301052
0.308069
0.315332
0.322962
0.331063
0.339717
0.34898
0.358882
0.369432
0.380628
0.392466
0.404946
0.418087
0.431921
0.446492
0.461846
0.478023
0.495046
0.51292
0.531622
0.551103
0.571292
0.592093
0.613396
0.635076
0.657005
0.679056
0.701102
0.723029
0.744731
0.766112
0.787088
0.807589
0.827551
0.846925
0.865667
0.883746
0.901135
0.917816
0.933776
0.949009
0.96351
0.977282
0.990326
1.00265
1.01426
1.02516
1.03536
1.04488
1.05372
1.06189
1.0694
1.07626
1.08248
1.08806
1.09302
1.09736
1.10109
1.10422
1.10675
1.10869
1.11004
1.11084
1.11114
1.11092
1.1102
1.10898
1.10727
1.10509
1.10243
1.09933
1.09578
1.09182
1.08745
1.08271
1.07762
1.0722
1.06649
1.06051
1.05431
1.0479
1.04133
1.03462
1.0278
1.0209
1.01395
1.00694
0.999909
0.992846
0.985753
0.978621
0.971436
0.96417
0.95679
0.949247
0.941477
0.933397
0.924901
0.915863
0.906134
0.89556
0.883992
0.871299
0.857381
0.842169
0.825624
0.80774
0.788544
0.768109
0.746582
0.724164
0.701066
0.677512
0.653776
0.630118
0.606763
0.584174
0.562642
0.54238
0.523511
0.506097
0.490158
0.475668
0.462563
0.450743
0.440103
0.430515
0.421866
0.414063
0.407029
0.400691
0.394987
0.389864
0.385269
0.381159
0.377492
0.374236
0.371359
0.368818
0.366591
0.36462
0.362853
0.361238
0.359721
0.358234
0.356694
0.355002
0.353045
0.350702
0.347833
0.344279
0.33986
0.334436
0.327948
0.320336
0.311561
0.301628
0.290597
0.278592
0.265798
0.252456
0.238847
0.225275
0.212042
0.199436
0.187712
0.177071
0.0984191
0.160756
0.196945
0.220045
0.237234
0.251274
0.263344
0.274054
0.283731
0.292604
0.300895
0.308779
0.316404
0.323905
0.33141
0.339038
0.346904
0.355111
0.363748
0.372891
0.3826
0.392918
0.403882
0.415522
0.42787
0.440958
0.454825
0.469509
0.485043
0.501449
0.518734
0.536883
0.555862
0.575613
0.596061
0.617114
0.638666
0.660604
0.682811
0.705168
0.727562
0.749884
0.772034
0.79392
0.815458
0.836578
0.857214
0.877313
0.896827
0.915721
0.933962
0.951526
0.968396
0.984558
1
1.01473
1.02873
1.042
1.05456
1.06639
1.07752
1.08793
1.09765
1.10666
1.11499
1.12263
1.1296
1.13589
1.14152
1.14648
1.15078
1.15444
1.15744
1.15979
1.16151
1.16258
1.16307
1.16299
1.16234
1.16112
1.15935
1.15702
1.15416
1.15076
1.14686
1.14245
1.13758
1.13225
1.1265
1.12035
1.11384
1.10701
1.09989
1.09252
1.08495
1.07722
1.06935
1.0614
1.05339
1.04536
1.03732
1.02929
1.0213
1.01333
1.00539
0.997471
0.989542
0.981568
0.973495
0.965249
0.956732
0.947828
0.938398
0.928291
0.917358
0.905456
0.892458
0.878257
0.862772
0.845947
0.827762
0.808244
0.78748
0.765616
0.742826
0.719318
0.695346
0.671177
0.647057
0.623366
0.60057
0.578885
0.558508
0.539544
0.522048
0.506023
0.491435
0.478201
0.46624
0.455428
0.445648
0.436802
0.428806
0.421575
0.415037
0.409128
0.403789
0.398969
0.39462
0.390702
0.387181
0.384007
0.38116
0.378583
0.376224
0.374032
0.371951
0.369918
0.367854
0.365667
0.363251
0.360487
0.35724
0.353349
0.348647
0.343023
0.336371
0.328607
0.319677
0.309571
0.298332
0.286069
0.272959
0.259235
0.245181
0.231109
0.217338
0.20417
0.191879
0.180679
0.106231
0.171233
0.209253
0.233287
0.251242
0.266045
0.278921
0.290452
0.300969
0.31073
0.31992
0.328677
0.33712
0.345356
0.353491
0.361628
0.369867
0.378309
0.387047
0.396172
0.405763
0.415894
0.426631
0.438035
0.45016
0.463058
0.476776
0.491353
0.506818
0.523185
0.540453
0.5586
0.577586
0.597354
0.617829
0.638921
0.660534
0.682562
0.704896
0.727426
0.750045
0.77265
0.795146
0.817441
0.839454
0.86111
0.882345
0.9031
0.923325
0.942978
0.962023
0.98043
0.998176
1.01524
1.03161
1.04728
1.06223
1.07646
1.08997
1.10276
1.11483
1.12618
1.13681
1.14672
1.15592
1.16441
1.17218
1.17925
1.18562
1.19128
1.19624
1.20051
1.20407
1.20694
1.20912
1.2106
1.21139
1.21156
1.21108
1.20998
1.20825
1.20589
1.20293
1.19936
1.1952
1.19046
1.18518
1.17936
1.17303
1.16624
1.15901
1.15139
1.14342
1.13515
1.12662
1.11788
1.10899
1.09999
1.09092
1.08182
1.07273
1.06369
1.05471
1.04581
1.03701
1.0283
1.01968
1.01112
1.00258
0.993998
0.985298
0.976376
0.967106
0.95735
0.946959
0.935782
0.923672
0.910492
0.896119
0.880453
0.863422
0.844998
0.825209
0.804138
0.781915
0.758714
0.734765
0.710334
0.685703
0.661179
0.637329
0.614423
0.592674
0.572243
0.553236
0.535698
0.519629
0.504983
0.491681
0.479617
0.468675
0.458754
0.449771
0.441626
0.434236
0.427529
0.421438
0.4159
0.410862
0.406276
0.402099
0.398282
0.394797
0.391592
0.388615
0.385815
0.383138
0.380522
0.377895
0.375173
0.372256
0.369033
0.365371
0.361116
0.356137
0.350296
0.343474
0.335571
0.326518
0.316284
0.304896
0.292446
0.279095
0.265067
0.250644
0.236139
0.221882
0.208193
0.195358
0.183612
0.112723
0.180053
0.21955
0.244314
0.262924
0.278446
0.29211
0.304492
0.315952
0.326713
0.336919
0.346677
0.356075
0.365193
0.374112
0.382913
0.391683
0.400513
0.409496
0.418728
0.428303
0.438316
0.448854
0.460002
0.471839
0.484434
0.497848
0.512128
0.527308
0.543404
0.560416
0.578322
0.597084
0.616648
0.636942
0.657886
0.679386
0.701345
0.72366
0.746229
0.768949
0.791722
0.814455
0.837057
0.859447
0.881551
0.903299
0.924632
0.945494
0.965839
0.985627
1.00482
1.0234
1.04132
1.05859
1.07517
1.09105
1.10623
1.1207
1.13445
1.14748
1.15978
1.17135
1.18219
1.19229
1.20167
1.2103
1.21821
1.22538
1.23181
1.2375
1.24246
1.24667
1.25014
1.25287
1.25485
1.25607
1.25659
1.25641
1.25553
1.25396
1.25169
1.24874
1.24511
1.24081
1.23585
1.23026
1.22406
1.21727
1.20992
1.20206
1.19373
1.18498
1.17586
1.16642
1.15672
1.14682
1.13678
1.12664
1.11646
1.10629
1.09617
1.08613
1.07621
1.06643
1.0568
1.04733
1.03801
1.02883
1.01973
1.01066
1.00154
0.992252
0.982686
0.972695
0.962128
0.950825
0.938624
0.925367
0.91091
0.895132
0.877946
0.859316
0.839261
0.817853
0.795225
0.771574
0.747165
0.722294
0.697355
0.672692
0.648764
0.625805
0.60403
0.583598
0.564601
0.547082
0.531028
0.516383
0.503057
0.490947
0.479947
0.469963
0.460887
0.452629
0.445117
0.438268
0.432009
0.426281
0.421025
0.41619
0.411728
0.407592
0.403746
0.400134
0.396703
0.393402
0.390174
0.386951
0.383658
0.380202
0.376481
0.372368
0.367741
0.362459
0.356382
0.349383
0.341349
0.332196
0.321875
0.310394
0.297825
0.284309
0.270058
0.255342
0.240476
0.225795
0.211629
0.198283
0.186011
0.117711
0.187032
0.227667
0.253
0.272185
0.288387
0.302831
0.316128
0.328605
0.340448
0.351765
0.362632
0.373106
0.383239
0.393084
0.4027
0.412156
0.421528
0.430904
0.440378
0.450051
0.46003
0.470419
0.481322
0.492837
0.505054
0.51805
0.531887
0.546611
0.562247
0.578803
0.596266
0.614604
0.633769
0.653698
0.674317
0.695539
0.717275
0.739427
0.761898
0.784591
0.80741
0.830264
0.853063
0.875726
0.898176
0.920343
0.942163
0.963577
0.984536
1.00499
1.02491
1.04425
1.06299
1.0811
1.09856
1.11534
1.13145
1.14686
1.16155
1.17553
1.18879
1.20131
1.2131
1.22414
1.23443
1.24396
1.25274
1.26076
1.26802
1.2745
1.28022
1.28515
1.2893
1.29266
1.29523
1.297
1.29797
1.29819
1.29764
1.29634
1.29427
1.29145
1.28787
1.28355
1.27849
1.27271
1.26623
1.25908
1.25129
1.24289
1.23394
1.22449
1.21459
1.20431
1.1937
1.18283
1.17177
1.16058
1.14931
1.13803
1.12679
1.11563
1.1046
1.09374
1.08306
1.0726
1.06237
1.05236
1.04256
1.03292
1.0234
1.0139
1.00433
0.994564
0.984448
0.973821
0.962505
0.950315
0.937065
0.922588
0.906737
0.889413
0.870562
0.850196
0.828405
0.805347
0.781294
0.756566
0.731471
0.706326
0.681617
0.657653
0.634696
0.612961
0.592595
0.573686
0.55626
0.54029
0.525709
0.512428
0.500345
0.489355
0.479353
0.470239
0.461921
0.454314
0.447332
0.440916
0.434994
0.429505
0.424395
0.419609
0.415117
0.410859
0.406784
0.40284
0.398975
0.395128
0.391233
0.387203
0.382951
0.37837
0.37334
0.367725
0.361391
0.354202
0.34604
0.336805
0.326432
0.314909
0.302284
0.288678
0.274284
0.259357
0.244206
0.229167
0.21458
0.200763
0.187991
0.121014
0.192024
0.233484
0.259281
0.279
0.295847
0.311105
0.325358
0.3389
0.351881
0.36438
0.376439
0.388086
0.399342
0.410234
0.420795
0.431072
0.441126
0.451032
0.460879
0.470769
0.480811
0.491122
0.501818
0.513017
0.524824
0.537336
0.550633
0.564777
0.57981
0.595754
0.612607
0.630351
0.648947
0.668343
0.688474
0.709262
0.730622
0.752466
0.7747
0.797232
0.819969
0.84282
0.865698
0.88852
0.911208
0.933688
0.955895
0.977767
0.99925
1.02029
1.04086
1.06089
1.08038
1.09927
1.11756
1.1352
1.15219
1.16851
1.18413
1.19905
1.21325
1.22672
1.23946
1.25144
1.26266
1.27312
1.28281
1.29171
1.29983
1.30716
1.31368
1.31939
1.32428
1.32835
1.33158
1.33397
1.3355
1.33621
1.3361
1.33516
1.33341
1.33082
1.32741
1.32317
1.31812
1.31227
1.30563
1.29822
1.29008
1.28125
1.27178
1.26172
1.25112
1.24006
1.22861
1.21683
1.2048
1.19258
1.18024
1.16785
1.15546
1.14315
1.13095
1.11892
1.1071
1.09553
1.08424
1.07324
1.06255
1.05216
1.04203
1.03211
1.02233
1.01258
1.00272
0.992602
0.982032
0.970808
0.958712
0.945532
0.931065
0.915144
0.897651
0.878542
0.857849
0.835732
0.812408
0.788121
0.763166
0.73787
0.712634
0.6879
0.663963
0.64109
0.619484
0.599281
0.580551
0.563303
0.547498
0.533064
0.519905
0.50792
0.496997
0.487031
0.47792
0.469567
0.461884
0.454792
0.448212
0.442077
0.436325
0.430895
0.425757
0.42085
0.416123
0.411525
0.407005
0.402514
0.397992
0.393368
0.388562
0.38348
0.378012
0.372035
0.365416
0.358023
0.349729
0.340424
0.330028
0.318507
0.305887
0.292262
0.277803
0.262749
0.247393
0.23207
0.217122
0.202883
0.189647
0.122316
0.194627
0.236767
0.263007
0.283254
0.300794
0.316904
0.332151
0.346797
0.360962
0.374694
0.388007
0.400895
0.413352
0.425377
0.436978
0.448182
0.459031
0.469586
0.479925
0.490144
0.500352
0.510671
0.521226
0.532147
0.543557
0.555568
0.56828
0.581774
0.596112
0.611332
0.627451
0.644464
0.662349
0.681066
0.700561
0.720766
0.741606
0.762997
0.784854
0.807088
0.82961
0.852331
0.875166
0.898027
0.920835
0.943517
0.966003
0.98823
1.01014
1.03168
1.0528
1.07346
1.09361
1.11323
1.13228
1.15073
1.16856
1.18574
1.20226
1.2181
1.23323
1.24764
1.26131
1.27424
1.2864
1.2978
1.3084
1.31822
1.32722
1.33542
1.34278
1.34931
1.35498
1.3598
1.36375
1.36682
1.36899
1.37026
1.37066
1.37017
1.36879
1.36653
1.36336
1.3593
1.35435
1.3485
1.34178
1.33421
1.32581
1.31663
1.30672
1.29612
1.2849
1.27314
1.2609
1.24827
1.23531
1.2221
1.20872
1.19523
1.18171
1.16822
1.15483
1.14159
1.12855
1.11578
1.10332
1.09121
1.07949
1.06817
1.05725
1.04671
1.03651
1.02657
1.01677
1.00696
0.996967
0.98657
0.97553
0.963595
0.950512
0.936058
0.92006
0.902402
0.883118
0.862261
0.839958
0.816414
0.791905
0.766759
0.741327
0.716108
0.691442
0.667645
0.644974
0.623618
0.603695
0.585254
0.568289
0.552747
0.538548
0.525593
0.513771
0.502972
0.493085
0.484007
0.475639
0.467889
0.460673
0.453911
0.447534
0.441476
0.435701
0.43015
0.424769
0.419513
0.414335
0.409189
0.404024
0.398783
0.393396
0.387783
0.381847
0.375475
0.368545
0.360927
0.352493
0.343123
0.332725
0.321244
0.308681
0.295105
0.280659
0.265559
0.250082
0.234552
0.219314
0.204709
0.191051
0.121608
0.194248
0.237075
0.263915
0.284811
0.303149
0.320207
0.336528
0.352351
0.367767
0.382797
0.397423
0.411615
0.425339
0.438569
0.451292
0.463513
0.475258
0.486574
0.497519
0.50818
0.518666
0.529096
0.539603
0.550321
0.561384
0.572922
0.58505
0.597868
0.611458
0.625879
0.641166
0.657336
0.674382
0.69228
0.710992
0.730464
0.75063
0.771417
0.792744
0.81453
0.836691
0.859145
0.881816
0.904591
0.927398
0.950164
0.97282
0.995299
1.01754
1.03949
1.06109
1.08229
1.10306
1.12334
1.14311
1.16233
1.18097
1.199
1.2164
1.23314
1.2492
1.26455
1.27918
1.29307
1.30619
1.31854
1.3301
1.34085
1.35079
1.35988
1.36813
1.3755
1.38201
1.38762
1.39232
1.3961
1.39895
1.40084
1.40178
1.40178
1.40083
1.39892
1.39605
1.3922
1.38738
1.38159
1.37484
1.36715
1.35854
1.34906
1.33875
1.32767
1.31589
1.30347
1.2905
1.27706
1.26322
1.24906
1.23467
1.22012
1.20548
1.19083
1.17623
1.16175
1.14746
1.13343