/*--------------------------------*- C++ -*----------------------------------*\
  =========                 |
  \\      /  F ield         | OpenFOAM: The Open Source CFD Toolbox
   \\    /   O peration     | Website:  https://openfoam.org
    \\  /    A nd           | Version:  9
     \\/     M anipulation  |
\*---------------------------------------------------------------------------*/
FoamFile
{
    format      ascii;
    class       volScalarField;
    location    "0.19";
    object      nut;
}
// * * * * * * * * * * * * * * * * * * * * * * * * * * * * * * * * * * * * * //

dimensions      [0 2 -1 0 0 0 0];

internalField   nonuniform List<scalar> 
12225
(
3.05428e-05
1.84105e-05
1.19613e-05
8.58809e-06
6.78195e-06
5.74525e-06
5.08233e-06
4.60867e-06
4.2416e-06
3.94303e-06
3.69344e-06
3.48138e-06
3.29898e-06
3.139e-06
3.0167e-06
2.97636e-06
3.09543e-06
3.51384e-06
0.000162794
0.000102661
8.29965e-05
7.40962e-05
6.93241e-05
6.61962e-05
6.36648e-05
6.13843e-05
5.92884e-05
5.73771e-05
5.56492e-05
5.40993e-05
5.27182e-05
5.14967e-05
5.05697e-05
4.99652e-05
5.05066e-05
5.15774e-05
0.000337777
0.000220953
0.000179934
0.000159631
0.000147778
0.000139913
0.000133954
0.000128964
0.000124571
0.000120628
0.000117069
0.00011386
0.000110988
0.000108462
0.000106392
0.000105048
0.000105489
0.000108269
0.000502145
0.000350012
0.000286775
0.000253058
0.000232421
0.000218497
0.000208192
0.000199938
0.000192958
0.000186862
0.000181447
0.000176607
0.000172295
0.000168522
0.000165349
0.000163187
0.000162894
0.000164923
0.000627777
0.000471943
0.000393559
0.000348084
0.000318882
0.00029867
0.000283692
0.000271894
0.000262142
0.000253804
0.000246517
0.000240075
0.000234374
0.000229393
0.000225143
0.000222029
0.00022068
0.0002214
0.000713684
0.000576267
0.000492922
0.000439804
0.000403782
0.000378012
0.000358625
0.000343344
0.000330818
0.000320228
0.000311074
0.000303051
0.000295991
0.000289824
0.000284509
0.000280354
0.000277805
0.000277077
0.000768689
0.000659003
0.000579881
0.000524223
0.00048412
0.000454282
0.000431296
0.000412975
0.000397915
0.000385213
0.000374281
0.000364743
0.000356372
0.000349049
0.000342731
0.00033747
0.00033368
0.000331504
0.000802482
0.000720732
0.000651896
0.00059844
0.000557348
0.000525396
0.000500043
0.000479458
0.00046236
0.000447869
0.000435377
0.000424475
0.000414897
0.000406488
0.000399182
0.000392891
0.000387916
0.000384382
0.000822692
0.000764524
0.00070859
0.000660826
0.000621582
0.000589582
0.000563317
0.00054148
0.000523051
0.000507268
0.000493571
0.000481563
0.000470967
0.000461608
0.000453394
0.000446277
0.000440221
0.00043547
0.000834565
0.000794314
0.000751195
0.000711012
0.000675752
0.000645547
0.000619824
0.000597845
0.00057892
0.000562472
0.000548045
0.000535291
0.000523953
0.000513858
0.000504897
0.00049702
0.000490218
0.000484537
0.000841461
0.000813875
0.00078187
0.00074969
0.000719639
0.000692597
0.000668664
0.000647596
0.000629033
0.000612609
0.000598
0.000584938
0.000573213
0.000562668
0.0005532
0.000544752
0.000537315
0.000530933
0.000845112
0.000825307
0.000801323
0.000775868
0.000750886
0.000727439
0.00070596
0.000686514
0.000668989
0.000653198
0.000638942
0.000626037
0.000614325
0.000603686
0.000594031
0.000585311
0.000577522
0.00057072
0.000847349
0.000832846
0.000815027
0.00079536
0.000775219
0.000755563
0.000736937
0.000719589
0.000703579
0.000688867
0.000675366
0.000662974
0.000651592
0.000641139
0.000631552
0.0006228
0.000614892
0.000607883
0.000848812
0.000838109
0.000825226
0.000810726
0.000795365
0.000779816
0.000764566
0.000749919
0.000736035
0.000722981
0.000710762
0.000699355
0.000688722
0.000678825
0.000669636
0.000661149
0.000653393
0.000646426
0.000849686
0.000841433
0.000832075
0.000821666
0.000810479
0.000798857
0.000787116
0.000775501
0.000764186
0.000753278
0.000742839
0.000732901
0.000723474
0.000714563
0.000706174
0.000698326
0.000691066
0.000684451
0.000850158
0.000843309
0.000836159
0.000828568
0.000820539
0.000812159
0.000803558
0.000794866
0.000786198
0.000777647
0.000769282
0.000761155
0.000753303
0.000745755
0.000738543
0.000731705
0.000725302
0.000719379
0.000850382
0.000844231
0.000838264
0.000832317
0.00082629
0.00082014
0.000813868
0.000807502
0.000801082
0.000794656
0.000788266
0.000781955
0.000775761
0.00076972
0.000763871
0.000758261
0.00075295
0.000747967
0.000850465
0.000844582
0.000839099
0.000833871
0.000828785
0.000823759
0.000818744
0.000813718
0.000808676
0.00080363
0.000798599
0.000793606
0.000788679
0.000783848
0.000779148
0.000774623
0.00077032
0.000766247
0.000850447
0.000844511
0.000838947
0.000833615
0.000828415
0.000823282
0.000818183
0.000813111
0.000808075
0.000803094
0.000798189
0.000793386
0.00078871
0.000784186
0.000779844
0.000775717
0.000771838
0.000768196
0.000850246
0.000843691
0.000837087
0.000830305
0.000823327
0.000816206
0.000809033
0.000801908
0.000794921
0.000788142
0.000781624
0.00077541
0.000769529
0.000764001
0.000758841
0.000754066
0.000749686
0.000745666
0.000849684
0.000841486
0.000832331
0.000822313
0.000811721
0.000800893
0.000790139
0.000779695
0.000769728
0.000760344
0.000751604
0.000743516
0.000736063
0.000729237
0.000723021
0.000717397
0.000712347
0.000707813
0.000848155
0.00083586
0.000821069
0.000804752
0.000787929
0.000771397
0.000755672
0.000741042
0.000727624
0.000715437
0.000704441
0.000694578
0.000685775
0.000677907
0.000670894
0.000664673
0.000659187
0.000654354
0.000844222
0.000822773
0.000797364
0.000771001
0.000745655
0.000722336
0.000701415
0.000682907
0.000666662
0.000652457
0.000640044
0.000629199
0.000619728
0.000611489
0.000604301
0.000598022
0.000592565
0.000587827
0.000834562
0.000794984
0.000752906
0.000713839
0.000679674
0.000650578
0.000626052
0.000605417
0.00058802
0.0005733
0.000560801
0.000550136
0.000540994
0.000533141
0.000526413
0.00052064
0.00051567
0.000511399
0.000811987
0.000741582
0.000679
0.000628443
0.00058855
0.0005571
0.000532103
0.000511996
0.000495615
0.000482113
0.000470874
0.000461443
0.000453467
0.000446676
0.000440878
0.000435955
0.000431762
0.000428174
0.000762495
0.000650206
0.000570944
0.000515737
0.000476255
0.000447228
0.000425303
0.000408301
0.000394799
0.000383855
0.000374836
0.000367307
0.000360963
0.000355564
0.000350939
0.000346975
0.000343626
0.000340753
0.000663519
0.000514164
0.000433063
0.00038386
0.000351506
0.000329083
0.000312834
0.000300555
0.000290926
0.000283143
0.000276697
0.000271264
0.00026663
0.000262644
0.000259183
0.000256166
0.000253548
0.000251336
0.000492188
0.00034352
0.000280793
0.000246494
0.000225353
0.000211422
0.000201652
0.000194346
0.000188571
0.000183812
0.000179772
0.000176279
0.000173223
0.000170539
0.00016816
0.000166041
0.000164155
0.000162528
0.000262136
0.000171322
0.000137546
0.00011981
0.000109378
0.000102836
9.83639e-05
9.49952e-05
9.22585e-05
8.99319e-05
8.79049e-05
8.61167e-05
8.45306e-05
8.31207e-05
8.18656e-05
8.07384e-05
7.97198e-05
7.87981e-05
5.97088e-05
4.26528e-05
3.14536e-05
2.40595e-05
1.91519e-05
1.58681e-05
1.36315e-05
1.20613e-05
1.0917e-05
1.00512e-05
9.37411e-06
8.82998e-06
8.38319e-06
8.01017e-06
7.69475e-06
7.42501e-06
7.19334e-06
6.99255e-06
3.23939e-06
4.38535e-05
6.08084e-05
7.4145e-05
8.49553e-05
9.38247e-05
0.000101172
0.00010731
0.000112478
0.000116876
0.000120677
0.000124057
0.000127194
0.000130328
0.000133789
0.000137599
0.000141857
0.000146672
0.000152124
0.000158232
0.000164914
0.00017194
0.000179031
0.000185694
0.000191356
0.00019536
0.000197419
0.000198393
0.000200132
0.000192627
3.80902e-05
3.77486e-05
3.9725e-05
3.94682e-05
4.02744e-05
4.15173e-05
4.401e-05
4.4303e-05
4.54309e-05
4.74946e-05
4.8947e-05
5.03409e-05
5.16786e-05
5.29496e-05
5.41497e-05
5.52769e-05
5.63315e-05
5.73153e-05
5.8231e-05
5.90816e-05
5.98702e-05
6.06003e-05
6.12749e-05
6.1897e-05
6.24694e-05
6.29946e-05
6.34748e-05
6.39119e-05
6.43076e-05
6.46636e-05
6.49812e-05
6.52618e-05
6.55065e-05
6.5717e-05
6.5895e-05
6.60431e-05
6.61648e-05
6.62662e-05
6.6357e-05
6.64534e-05
6.65842e-05
6.66888e-05
6.67603e-05
6.68037e-05
6.68211e-05
6.68139e-05
6.67836e-05
6.67315e-05
6.66588e-05
6.65668e-05
6.64573e-05
6.63317e-05
6.61922e-05
6.60406e-05
6.58781e-05
6.57046e-05
6.55157e-05
6.53036e-05
6.50652e-05
6.4817e-05
6.4564e-05
6.43062e-05
6.40432e-05
6.3775e-05
6.35021e-05
6.32255e-05
6.29466e-05
6.26669e-05
6.23875e-05
6.21095e-05
6.18331e-05
6.15579e-05
6.12823e-05
6.10033e-05
6.07187e-05
6.04354e-05
6.02264e-05
6.0568e-05
6.15314e-05
6.23836e-05
6.287e-05
6.28005e-05
6.20579e-05
6.08257e-05
5.95369e-05
5.83344e-05
5.74048e-05
5.64414e-05
5.53228e-05
5.40113e-05
5.24791e-05
5.04192e-05
5.15778e-05
4.70278e-05
0.000236479
4.635e-05
4.25157e-05
3.58998e-05
0.000201735
0.000217269
0.000211544
0.000195511
0.000207967
0.00019074
0.00020317
0.000197218
0.000186725
3.44277e-05
3.56437e-05
0.000187629
3.65987e-05
0.000195188
0.000196457
0.000195395
0.00019448
0.000193853
0.000193451
0.0001932
0.000193062
0.000193032
0.000193119
0.000193337
0.000193528
0.000193632
0.000193642
0.000193638
0.000193753
0.000193981
0.000194071
0.000193671
0.000192704
0.000191287
0.000189667
0.000187576
0.000184496
0.000180263
0.000174956
0.000168557
0.000161628
0.000154424
0.00014686
0.000139035
0.000131076
0.000123117
0.000115287
0.00010769
0.000100398
9.34365e-05
8.67087e-05
8.0125e-05
5.04818e-06
5.38998e-05
0.000102404
0.000141198
0.000172778
0.000198664
0.000219829
0.000237008
0.000250812
0.000261772
0.000270367
0.000277033
0.000282172
0.000286168
0.000289136
0.000291592
0.000293934
0.000296438
0.000299245
0.000302335
0.000305524
0.000308468
0.000310616
0.00031119
0.000309125
0.000303695
0.000294633
0.000282889
0.000269714
0.00025122
0.000213772
0.0002103
0.000213226
0.000215755
0.000219218
0.000224153
0.000230904
0.000238053
0.000250948
0.000262308
0.000271993
0.000281663
0.000291997
0.000302792
0.000313825
0.000324917
0.00033592
0.000346719
0.000357224
0.000367373
0.000377121
0.000386446
0.000395336
0.000403795
0.000411831
0.000419462
0.000426706
0.000433585
0.00044012
0.000446333
0.000452243
0.000457865
0.000463213
0.000468295
0.000473112
0.000477656
0.00048191
0.000485834
0.000489366
0.000492399
0.000494757
0.000497019
0.000499155
0.000501179
0.000503104
0.00050494
0.000506702
0.000508399
0.000510044
0.000511648
0.000513221
0.000514773
0.000516307
0.000517824
0.000519314
0.000520769
0.000522179
0.000523542
0.000524888
0.000526288
0.000527766
0.000529331
0.000530992
0.000532755
0.000534626
0.000536611
0.000538712
0.000540928
0.000543252
0.000545671
0.000548162
0.000550692
0.000553217
0.000555679
0.00055801
0.000560135
0.000562018
0.000563713
0.000565018
0.000565364
0.000564413
0.000561957
0.000557463
0.000550685
0.000542554
0.00053345
0.000521847
0.000510195
0.000497948
0.000484182
0.000469113
0.000454963
0.000408701
0.00041302
0.000492779
0.000361284
0.000323129
0.000316432
0.000414418
0.000452051
0.000436529
0.000408006
0.00044739
0.000402338
0.000457631
0.000438816
0.000374785
0.00023763
0.00024575
0.000380672
0.000258874
0.000435541
0.000458678
0.000458588
0.000456825
0.000455432
0.000454539
0.000454145
0.000454269
0.000454846
0.000455699
0.000456788
0.000458017
0.000459368
0.000460862
0.000462523
0.000464217
0.000465537
0.000466183
0.000466276
0.000466072
0.000465167
0.000463238
0.000459446
0.000454934
0.000449144
0.000441641
0.000432174
0.000421056
0.000408563
0.000394753
0.000379811
0.000363992
0.000347593
0.000330925
0.000314282
0.000297888
0.000281861
0.000265984
0.000249093
7.7438e-06
6.74338e-05
0.000130509
0.000184829
0.000231349
0.000271001
0.000304493
0.000332427
0.000355355
0.000373806
0.000388288
0.000399294
0.000407299
0.000412705
0.000415788
0.000417198
0.0004175
0.000417161
0.000416555
0.000415892
0.000415202
0.000414305
0.000413064
0.00041117
0.000408326
0.000404521
0.000400255
0.000396536
0.00039401
0.000391874
0.000389243
0.00039363
0.000401736
0.00041168
0.000423357
0.000437327
0.000454079
0.000473506
0.000496043
0.000520172
0.000544965
0.000570296
0.000596101
0.000622114
0.000648036
0.000673603
0.000698603
0.000722877
0.000746311
0.000768835
0.00079041
0.000811024
0.000830687
0.00084942
0.000867257
0.000884235
0.000900393
0.000915773
0.000930413
0.000944346
0.000957603
0.000970207
0.000982175
0.000993514
0.00100422
0.00101429
0.00102368
0.00103236
0.00104025
0.00104729
0.00105337
0.00105889
0.00106422
0.00106925
0.00107399
0.00107843
0.00108258
0.00108647
0.00109009
0.00109347
0.00109663
0.00109955
0.00110226
0.00110474
0.00110697
0.00110894
0.0011107
0.0011123
0.0011138
0.00111523
0.00111663
0.00111802
0.0011194
0.0011208
0.0011222
0.00112362
0.00112504
0.00112643
0.00112776
0.00112899
0.00113002
0.00113079
0.00113117
0.00113103
0.00113023
0.00112862
0.00112606
0.00112245
0.00111764
0.00111143
0.0011038
0.00109492
0.00108502
0.00107412
0.0010623
0.0010495
0.00103516
0.00101983
0.00100294
0.000982561
0.00095968
0.000935676
0.000895921
0.000882202
0.000893147
0.00081593
0.000769097
0.000751985
0.000789592
0.000798299
0.00077972
0.000759667
0.000766724
0.000741403
0.000757412
0.0007354
0.0006844
0.000599485
0.000607062
0.000678367
0.000628408
0.000722668
0.000741009
0.000740697
0.000738121
0.000735938
0.00073447
0.00073379
0.0007339
0.000734657
0.000735814
0.000737265
0.000738975
0.000740911
0.000743059
0.000745369
0.00074762
0.000749402
0.000750461
0.000750879
0.00075072
0.000749512
0.000746835
0.00074205
0.000736021
0.000728194
0.000717959
0.000704961
0.000689384
0.000671406
0.000651203
0.000629044
0.000605293
0.000580387
0.000554802
0.000529009
0.000503402
0.000478223
0.000453323
0.000427674
1.08318e-05
8.12155e-05
0.000156909
0.000223483
0.000281155
0.000330759
0.000372992
0.000408469
0.000437757
0.000461399
0.000479928
0.000493874
0.000503777
0.000509905
0.000512958
0.000513653
0.000512693
0.000510722
0.000508267
0.000505907
0.000503963
0.000502594
0.00050186
0.00050175
0.000502295
0.000503684
0.00050635
0.000510896
0.000517755
0.000526929
0.000538455
0.000553383
0.000571429
0.000592259
0.000615818
0.000642339
0.000671979
0.000704568
0.000739716
0.000776643
0.000814598
0.000853071
0.000891691
0.000930115
0.000968041
0.00100522
0.00104144
0.00107657
0.00111051
0.00114318
0.00117457
0.00120465
0.00123346
0.00126101
0.00128733
0.00131248
0.00133648
0.00135939
0.00138123
0.00140205
0.00142188
0.00144073
0.00145863
0.00147559
0.00149161
0.00150668
0.00152079
0.00153392
0.00154604
0.00155713
0.00156716
0.00157614
0.00158459
0.00159258
0.00160006
0.00160701
0.00161343
0.00161934
0.00162474
0.00162965
0.00163408
0.00163802
0.00164147
0.00164442
0.00164687
0.00164888
0.00165048
0.00165172
0.00165266
0.00165333
0.00165377
0.001654
0.00165406
0.00165394
0.00165366
0.00165323
0.00165262
0.00165182
0.00165078
0.00164944
0.00164773
0.00164556
0.0016428
0.00163932
0.00163498
0.00162964
0.00162315
0.0016154
0.00160629
0.00159576
0.00158384
0.0015707
0.00155659
0.00154165
0.00152585
0.00150898
0.00149071
0.00147094
0.00144921
0.0014247
0.00139743
0.00136717
0.0013307
0.00130284
0.00128015
0.0012282
0.00118491
0.00115768
0.00115304
0.00113984
0.00111668
0.00109466
0.00108231
0.00106061
0.00105284
0.00103014
0.000995196
0.000953583
0.000953802
0.00097861
0.000964529
0.000999151
0.00100713
0.0010051
0.00100155
0.000998539
0.000996399
0.000995152
0.00099481
0.000995192
0.000996047
0.00099717
0.000998621
0.0010003
0.00100215
0.00100409
0.00100591
0.0010073
0.00100803
0.00100799
0.00100699
0.00100465
0.00100061
0.000994476
0.000986455
0.000975994
0.000962483
0.000945635
0.000925562
0.00090239
0.000876349
0.00084777
0.000817092
0.000784853
0.000751649
0.000718088
0.00068471
0.0006519
0.000619694
0.000587557
1.41259e-05
9.46295e-05
0.00018224
0.000259816
0.000327079
0.00038485
0.000433922
0.000475027
0.000508849
0.000536036
0.000557215
0.000573026
0.000583943
0.000590593
0.000593758
0.000594277
0.000593019
0.000590811
0.000588406
0.000586454
0.000585451
0.000585738
0.000587528
0.000590961
0.000596182
0.00060341
0.000612972
0.000625252
0.000640562
0.000659047
0.000680792
0.000705976
0.000734573
0.000766473
0.00080157
0.000839787
0.000880954
0.000924722
0.000970584
0.00101791
0.00106609
0.00111458
0.00116297
0.00121091
0.0012581
0.0013043
0.00134934
0.00139308
0.00143541
0.00147629
0.00151567
0.00155355
0.00158993
0.00162483
0.00165828
0.00169031
0.00172096
0.00175026
0.00177824
0.00180495
0.00183041
0.00185463
0.00187764
0.00189946
0.00192009
0.00193954
0.00195781
0.00197489
0.00199078
0.00200549
0.00201902
0.00203137
0.00204255
0.00205309
0.00206291
0.00207198
0.0020803
0.00208786
0.00209468
0.00210076
0.0021061
0.0021107
0.00211456
0.00211768
0.00212009
0.00212185
0.00212298
0.00212353
0.00212355
0.00212308
0.00212216
0.00212082
0.00211909
0.002117
0.00211455
0.00211176
0.00210863
0.00210514
0.00210126
0.00209694
0.00209213
0.00208674
0.00208068
0.00207385
0.00206613
0.00205741
0.00204757
0.00203653
0.00202421
0.00201058
0.00199566
0.00197954
0.00196231
0.00194402
0.00192458
0.00190379
0.00188141
0.00185723
0.00183091
0.00180209
0.00177066
0.00173655
0.0016995
0.00166384
0.00162739
0.00158234
0.00153997
0.00150491
0.0014789
0.00145184
0.00142257
0.00139509
0.00137179
0.00134691
0.00132728
0.00130342
0.00127659
0.00125202
0.00124517
0.00124817
0.00124124
0.00124938
0.00124939
0.00124514
0.00124039
0.00123638
0.00123335
0.00123126
0.00123006
0.0012296
0.00122961
0.00122987
0.00123046
0.00123122
0.00123208
0.00123291
0.00123356
0.0012338
0.00123337
0.00123203
0.00122945
0.00122529
0.00121928
0.00121109
0.00120053
0.001187
0.00116996
0.00114926
0.00112493
0.00109708
0.00106597
0.00103195
0.000995524
0.000957285
0.000917915
0.000878117
0.000838548
0.000799729
0.000761903
0.000724975
1.74759e-05
0.000107689
0.000206378
0.000293997
0.000369841
0.000434797
0.000489748
0.000535577
0.000573131
0.000603227
0.000626576
0.000643903
0.000655851
0.000663311
0.00066719
0.000668425
0.000667961
0.00066672
0.000665554
0.000665201
0.000666257
0.000669166
0.000674248
0.000681739
0.000691851
0.000704811
0.000720886
0.000740346
0.000763414
0.000790217
0.0008208
0.000855149
0.000893162
0.000934658
0.000979404
0.00102712
0.00107747
0.00113001
0.00118423
0.00123959
0.00129556
0.00135166
0.00140749
0.00146273
0.00151708
0.00157034
0.00162233
0.00167291
0.00172198
0.00176948
0.00181537
0.00185963
0.00190225
0.00194324
0.00198262
0.0020204
0.00205662
0.00209131
0.00212449
0.00215618
0.00218642
0.00221523
0.00224262
0.00226862
0.00229323
0.00231647
0.00233835
0.00235887
0.00237805
0.00239588
0.00241239
0.00242758
0.00244143
0.00245407
0.00246583
0.00247665
0.00248651
0.00249539
0.00250329
0.00251022
0.00251618
0.00252118
0.0025252
0.00252828
0.00253044
0.00253171
0.00253215
0.00253177
0.00253063
0.00252877
0.00252623
0.00252305
0.00251926
0.00251489
0.00250997
0.00250452
0.00249854
0.00249204
0.002485
0.0024774
0.0024692
0.00246034
0.00245077
0.00244042
0.00242919
0.00241702
0.00240383
0.00238955
0.00237413
0.00235753
0.00233975
0.00232079
0.00230065
0.00227927
0.00225652
0.00223224
0.00220622
0.00217828
0.00214822
0.00211587
0.0020812
0.00204425
0.00200531
0.00196572
0.00192487
0.00188056
0.00183723
0.00179726
0.00176121
0.00172617
0.00169173
0.00165927
0.00162945
0.00160065
0.00157485
0.00154926
0.00152473
0.00150412
0.0014919
0.00148469
0.00147617
0.00147289
0.00146771
0.0014613
0.00145519
0.00145001
0.00144588
0.0014427
0.00144034
0.00143866
0.00143743
0.00143641
0.00143566
0.00143502
0.00143436
0.00143357
0.0014325
0.00143094
0.00142865
0.0014253
0.00142052
0.00141398
0.00140544
0.00139459
0.00138101
0.00136415
0.00134352
0.00131908
0.00129081
0.00125882
0.00122334
0.00118478
0.00114363
0.00110055
0.00105626
0.00101154
0.000967135
0.000923678
0.000881595
0.000841095
2.07757e-05
0.000119997
0.000228838
0.000325535
0.000409201
0.000480827
0.00054118
0.000591358
0.000632408
0.000665306
0.000690988
0.000710151
0.00072376
0.000732782
0.000738196
0.000741002
0.000742199
0.00074276
0.000743587
0.000745481
0.00074911
0.000755003
0.000763567
0.000775117
0.000789917
0.000808202
0.000830195
0.000856087
0.000886015
0.000920028
0.000958089
0.00100008
0.00104578
0.00109493
0.0011472
0.0012022
0.00125951
0.00131869
0.00137924
0.00144069
0.00150255
0.00156443
0.00162595
0.0016868
0.00174673
0.00180551
0.00186299
0.00191902
0.0019735
0.00202636
0.00207754
0.00212702
0.00217478
0.00222081
0.00226511
0.0023077
0.0023486
0.00238782
0.00242538
0.00246131
0.00249563
0.00252835
0.00255949
0.00258908
0.00261713
0.00264365
0.00266865
0.00269215
0.00271416
0.00273468
0.00275374
0.00277132
0.00278743
0.00280204
0.00281544
0.00282771
0.00283881
0.00284874
0.00285749
0.00286505
0.00287143
0.00287663
0.00288065
0.00288353
0.00288528
0.00288593
0.00288552
0.00288408
0.00288165
0.00287826
0.00287396
0.00286879
0.00286279
0.002856
0.00284844
0.00284014
0.00283114
0.00282144
0.00281105
0.00279996
0.00278817
0.00277565
0.00276236
0.00274828
0.00273335
0.00271753
0.00270078
0.00268306
0.00266434
0.00264458
0.00262375
0.00260182
0.00257872
0.00255435
0.00252858
0.00250124
0.00247218
0.00244127
0.0024084
0.00237349
0.00233656
0.00229774
0.00225731
0.00221582
0.00217327
0.00212929
0.00208517
0.00204255
0.002002
0.00196284
0.00192509
0.00188931
0.00185574
0.00182404
0.00179487
0.00176759
0.00174279
0.00172175
0.00170566
0.00169298
0.00168149
0.00167262
0.00166403
0.0016557
0.00164817
0.0016417
0.0016363
0.00163182
0.00162808
0.00162493
0.00162217
0.00161955
0.00161712
0.00161471
0.00161216
0.00160933
0.0016061
0.00160226
0.00159757
0.00159167
0.00158419
0.00157483
0.00156332
0.00154935
0.00153245
0.00151208
0.00148791
0.00145991
0.00142801
0.00139231
0.00135307
0.00131067
0.00126563
0.00121862
0.0011704
0.0011218
0.00107362
0.00102659
0.00098129
0.00093811
2.39456e-05
0.000131213
0.000249207
0.000354159
0.000444827
0.000522314
0.000587777
0.000642363
0.0006872
0.000723395
0.000751834
0.000773551
0.000789586
0.000800965
0.000808716
0.000813869
0.000817447
0.000820441
0.000823786
0.000828322
0.000834776
0.000843748
0.000855723
0.000871083
0.00089013
0.000913106
0.000940198
0.000971532
0.00100716
0.00104705
0.00109108
0.00113904
0.00119065
0.00124558
0.00130343
0.0013638
0.00142625
0.00149032
0.00155556
0.00162153
0.00168783
0.00175407
0.00181992
0.00188508
0.00194933
0.00201244
0.00207425
0.00213462
0.00219344
0.00225064
0.00230613
0.00235989
0.00241188
0.00246209
0.0025105
0.00255712
0.00260195
0.002645
0.00268629
0.00272583
0.00276363
0.00279972
0.0028341
0.0028668
0.00289782
0.00292718
0.0029549
0.00298099
0.00300545
0.0030283
0.00304955
0.00306919
0.00308723
0.00310365
0.00311846
0.00313196
0.00314411
0.0031549
0.00316433
0.00317237
0.00317905
0.00318435
0.00318829
0.00319088
0.00319215
0.00319212
0.00319081
0.00318826
0.00318449
0.00317955
0.00317348
0.0031663
0.00315808
0.00314884
0.00313863
0.00312748
0.00311543
0.00310251
0.00308873
0.00307412
0.00305869
0.00304243
0.00302535
0.00300745
0.00298871
0.00296912
0.00294867
0.00292735
0.00290514
0.00288204
0.00285799
0.00283297
0.00280688
0.00277961
0.00275105
0.00272106
0.00268951
0.00265631
0.0026214
0.00258476
0.00254643
0.00250653
0.0024653
0.00242308
0.00238003
0.00233627
0.00229236
0.00224881
0.00220653
0.0021656
0.00212622
0.00208872
0.00205328
0.00201993
0.001989
0.00196048
0.00193477
0.0019124
0.00189362
0.00187767
0.00186361
0.00185156
0.00184061
0.00183061
0.00182168
0.00181387
0.0018071
0.0018012
0.00179594
0.00179115
0.00178666
0.00178221
0.00177786
0.00177339
0.00176865
0.0017635
0.00175777
0.00175129
0.00174379
0.00173496
0.00172442
0.0017119
0.0016971
0.00167971
0.00165928
0.00163535
0.00160774
0.00157633
0.00154107
0.00150205
0.00145951
0.00141383
0.00136554
0.0013153
0.0012639
0.00121219
0.00116104
0.00111125
0.0010635
0.00101829
2.69054e-05
0.000141112
0.000267197
0.000378915
0.000475838
0.00055905
0.000629655
0.000688833
0.000737804
0.000777654
0.000809496
0.000834469
0.000853667
0.000868151
0.00087897
0.000887159
0.000893737
0.000899697
0.000905977
0.000913442
0.000922861
0.00093489
0.000950076
0.000968854
0.000991562
0.00101845
0.00104967
0.00108531
0.00112536
0.00116972
0.0012182
0.00127054
0.00132643
0.00138548
0.00144731
0.00151148
0.00157756
0.00164512
0.00171373
0.00178301
0.00185256
0.00192204
0.00199114
0.0020596
0.00212716
0.00219364
0.00225886
0.00232268
0.00238499
0.00244568
0.0025047
0.00256197
0.00261746
0.00267114
0.00272299
0.002773
0.00282116
0.00286748
0.00291195
0.00295459
0.00299541
0.00303441
0.00307161
0.00310702
0.00314065
0.00317251
0.00320261
0.00323097
0.00325759
0.00328247
0.00330564
0.00332708
0.00334679
0.00336477
0.00338098
0.00339555
0.00340862
0.00342017
0.00343018
0.00343864
0.00344555
0.00345091
0.00345474
0.00345704
0.00345783
0.00345713
0.00345496
0.00345134
0.0034463
0.00343987
0.00343209
0.00342301
0.00341266
0.00340109
0.00338833
0.00337444
0.00335946
0.00334343
0.00332638
0.00330836
0.00328938
0.00326948
0.00324869
0.00322702
0.00320449
0.00318113
0.00315696
0.00313199
0.00310624
0.0030797
0.00305237
0.00302419
0.00299512
0.00296507
0.00293392
0.00290158
0.00286796
0.00283298
0.0027966
0.00275883
0.0027197
0.00267932
0.00263789
0.00259563
0.00255276
0.00250947
0.00246612
0.00242303
0.00238044
0.00233913
0.00229933
0.00226131
0.00222524
0.00219127
0.00215963
0.00213047
0.00210405
0.00208058
0.00206007
0.0020421
0.00202618
0.00201212
0.00199947
0.00198805
0.0019778
0.00196868
0.00196052
0.00195313
0.00194629
0.00193978
0.00193344
0.00192702
0.00192056
0.00191385
0.00190672
0.00189902
0.00189056
0.00188118
0.00187061
0.00185857
0.00184472
0.00182878
0.00181048
0.0017895
0.00176543
0.00173799
0.00170702
0.00167235
0.00163394
0.0015919
0.00154643
0.00149792
0.00144686
0.00139392
0.0013399
0.00128567
0.00123214
0.00118017
0.00113051
0.00108376
2.95835e-05
0.000149634
0.000282205
0.000399719
0.000502337
0.000590983
0.000666675
0.000730592
0.000783921
0.000827864
0.000863663
0.000892499
0.000915494
0.000933726
0.000948239
0.000960052
0.000970162
0.000979538
0.000989106
0.000999732
0.00101221
0.00102722
0.00104537
0.00106712
0.00109286
0.00112283
0.00115719
0.00119601
0.00123922
0.00128671
0.00133826
0.00139358
0.00145232
0.00151412
0.00157857
0.00164526
0.00171377
0.00178369
0.00185462
0.00192619
0.00199804
0.00206987
0.00214136
0.00221226
0.00228235
0.00235141
0.00241929
0.00248583
0.00255091
0.00261443
0.00267631
0.00273647
0.00279486
0.00285144
0.00290618
0.00295906
0.00301007
0.00305918
0.00310641
0.00315174
0.00319518
0.00323674
0.00327642
0.00331422
0.00335016
0.00338424
0.00341647
0.00344685
0.0034754
0.00350211
0.00352699
0.00355004
0.00357126
0.00359062
0.00360813
0.00362374
0.00363768
0.00364994
0.00366051
0.00366937
0.00367653
0.00368198
0.00368573
0.00368778
0.00368816
0.00368686
0.00368392
0.00367933
0.00367314
0.00366537
0.00365605
0.00364522
0.00363292
0.0036192
0.00360411
0.00358769
0.00357
0.00355108
0.00353098
0.00350976
0.00348745
0.00346411
0.00343978
0.00341451
0.00338834
0.00336132
0.00333351
0.00330494
0.00327566
0.00324569
0.00321506
0.00318375
0.00315174
0.00311897
0.00308537
0.00305089
0.00301546
0.00297902
0.00294155
0.00290304
0.00286352
0.00282307
0.00278183
0.00273998
0.0026977
0.00265518
0.00261268
0.00257044
0.00252865
0.00248774
0.00244831
0.00241055
0.00237467
0.00234082
0.0023092
0.00227996
0.00225327
0.00222923
0.00220777
0.00218864
0.00217151
0.00215616
0.0021423
0.00212972
0.00211831
0.00210795
0.00209844
0.00208959
0.00208115
0.0020729
0.00206467
0.00205622
0.00204755
0.00203848
0.00202883
0.00201842
0.00200708
0.00199463
0.00198083
0.0019654
0.00194807
0.00192856
0.00190662
0.00188195
0.00185424
0.00182337
0.0017891
0.0017513
0.00170994
0.00166511
0.00161702
0.001566
0.00151256
0.00145734
0.00140112
0.0013448
0.00128932
0.00123558
0.0011844
0.00113643
3.19178e-05
0.000156753
0.000294223
0.000416577
0.000524238
0.000617946
0.000698583
0.000767233
0.000825097
0.000873485
0.000913662
0.00094683
0.00097412
0.000996606
0.00101531
0.00103122
0.00104529
0.00105845
0.00107159
0.00108557
0.00110117
0.00111909
0.00113995
0.00116427
0.00119244
0.00122474
0.00126134
0.0013023
0.00134758
0.00139704
0.00145045
0.00150754
0.00156796
0.00163136
0.00169734
0.0017655
0.00183545
0.00190679
0.00197917
0.00205221
0.00212559
0.002199
0.00227216
0.00234483
0.00241677
0.00248778
0.00255769
0.00262635
0.00269363
0.00275941
0.0028236
0.00288613
0.00294693
0.00300594
0.00306312
0.00311845
0.00317189
0.00322342
0.00327304
0.00332073
0.00336649
0.00341031
0.0034522
0.00349215
0.00353016
0.00356625
0.0036004
0.00363263
0.00366294
0.00369133
0.00371779
0.00374232
0.00376492
0.00378558
0.00380428
0.00382101
0.00383578
0.00384874
0.00385988
0.00386918
0.00387664
0.00388224
0.00388599
0.0038879
0.00388797
0.00388621
0.00388262
0.00387724
0.00387006
0.00386113
0.00385046
0.00383811
0.0038241
0.00380848
0.0037913
0.00377262
0.00375249
0.00373096
0.0037081
0.00368396
0.0036586
0.00363209
0.00360448
0.00357584
0.00354624
0.00351575
0.00348444
0.00345239
0.00341966
0.00338633
0.00335243
0.00331801
0.00328309
0.00324765
0.00321168
0.00317515
0.00313804
0.0031003
0.00306193
0.0030229
0.00298323
0.00294296
0.00290218
0.00286101
0.00281959
0.00277807
0.00273665
0.00269554
0.00265492
0.00261502
0.00257643
0.00253944
0.00250425
0.00247101
0.0024399
0.00241104
0.00238454
0.00236045
0.00233867
0.00231901
0.00230124
0.00228514
0.00227046
0.00225701
0.00224464
0.00223318
0.00222244
0.0022122
0.00220222
0.00219227
0.00218216
0.00217167
0.00216076
0.00214928
0.00213703
0.00212385
0.00210954
0.00209393
0.00207679
0.00205789
0.00203698
0.00201381
0.00198815
0.00195975
0.00192852
0.00189424
0.00185674
0.00181591
0.00177176
0.00172435
0.00167387
0.00162064
0.00156513
0.00150795
0.00144988
0.0013918
0.00133468
0.00127946
0.00122702
0.00117804
3.38485e-05
0.000162377
0.000303434
0.000429577
0.000541506
0.000639763
0.000725034
0.000798301
0.000860802
0.000913829
0.000958646
0.000996457
0.00102839
0.00105548
0.00107873
0.00109908
0.00111742
0.00113465
0.00115159
0.00116906
0.00118783
0.0012086
0.00123199
0.00125854
0.00128866
0.00132267
0.00136077
0.00140305
0.00144947
0.00149993
0.00155423
0.00161211
0.00167324
0.0017373
0.0018039
0.00187268
0.00194325
0.00201526
0.00208835
0.00216217
0.00223642
0.00231079
0.00238503
0.00245887
0.0025321
0.00260451
0.00267593
0.0027462
0.00281518
0.00288275
0.00294882
0.00301328
0.00307606