/*--------------------------------*- C++ -*----------------------------------*\
  =========                 |
  \\      /  F ield         | OpenFOAM: The Open Source CFD Toolbox
   \\    /   O peration     | Website:  https://openfoam.org
    \\  /    A nd           | Version:  9
     \\/     M anipulation  |
\*---------------------------------------------------------------------------*/
FoamFile
{
    format      ascii;
    class       volScalarField;
    location    "0.19";
    object      p;
}
// * * * * * * * * * * * * * * * * * * * * * * * * * * * * * * * * * * * * * //

dimensions      [0 2 -2 0 0 0 0];

internalField   nonuniform List<scalar> 
12225
(
30.3882
30.0853
29.9977
29.9884
29.9851
29.9845
29.9882
29.9945
30.0018
30.0098
30.0177
30.0249
30.03
30.0312
30.0254
30.0086
29.9826
29.9289
29.9957
30.0022
29.992
29.9904
29.9873
29.9862
29.9894
29.9952
30.0022
30.0098
30.0175
30.0244
30.0291
30.0299
30.0234
30.0059
29.9745
29.9216
29.9462
30.005
29.9968
29.9922
29.9891
29.9879
29.9905
29.9956
30.002
30.0091
30.0162
30.0225
30.0266
30.0268
30.0197
30.0024
29.9716
29.9159
29.9761
30.0107
29.9966
29.9909
29.9885
29.9874
29.9895
29.9939
29.9996
30.0059
30.0121
30.0174
30.0205
30.0196
30.0116
29.9943
29.9635
29.9032
29.9827
30.0025
29.991
29.9869
29.9853
29.9844
29.9861
29.9898
29.9946
29.9999
30.0049
30.0089
30.0105
30.008
29.9988
29.9805
29.9486
29.8886
29.9743
29.9899
29.9834
29.9809
29.9799
29.9793
29.9806
29.9835
29.9873
29.9913
29.9949
29.9972
29.9969
29.9925
29.9816
29.9618
29.9288
29.8728
29.9647
29.978
29.9749
29.9735
29.9729
29.9724
29.9733
29.9753
29.9779
29.9805
29.9824
29.9828
29.9806
29.9741
29.9613
29.9399
29.9063
29.8557
29.9564
29.9671
29.9658
29.965
29.9646
29.9641
29.9645
29.9655
29.9669
29.968
29.9681
29.9666
29.9623
29.9538
29.9392
29.9164
29.883
29.8378
29.9483
29.9566
29.9564
29.956
29.9556
29.9549
29.9546
29.9546
29.9546
29.9542
29.9526
29.9491
29.9428
29.9324
29.9163
29.8926
29.8602
29.8196
29.9403
29.9467
29.9471
29.9468
29.9462
29.9451
29.944
29.943
29.9416
29.9396
29.9362
29.9309
29.9228
29.9107
29.8934
29.8692
29.838
29.801
29.9321
29.9372
29.9377
29.9373
29.9363
29.9346
29.9327
29.9304
29.9277
29.9241
29.9191
29.912
29.9022
29.8888
29.8705
29.8463
29.8164
29.7819
29.9238
29.928
29.9283
29.9276
29.9259
29.9234
29.9203
29.9168
29.9125
29.9073
29.9005
29.8918
29.8805
29.866
29.8471
29.8232
29.7948
29.7631
29.916
29.9195
29.9196
29.9183
29.9159
29.9125
29.9083
29.9033
29.8976
29.8907
29.8823
29.872
29.8594
29.8438
29.8246
29.8012
29.7744
29.7448
29.9096
29.9127
29.9125
29.9108
29.9078
29.9036
29.8985
29.8926
29.8856
29.8775
29.868
29.8566
29.843
29.8269
29.8077
29.7851
29.7599
29.7318
29.9051
29.9081
29.9077
29.9058
29.9024
29.8978
29.8922
29.8856
29.8779
29.8691
29.8588
29.8469
29.8331
29.8169
29.7981
29.7765
29.7528
29.7259
29.9031
29.9057
29.9051
29.903
29.8995
29.8947
29.8889
29.8821
29.8743
29.8653
29.855
29.8433
29.8299
29.8145
29.7969
29.7768
29.7549
29.7297
29.9042
29.906
29.9053
29.9031
29.8995
29.8948
29.8891
29.8825
29.875
29.8664
29.8568
29.8459
29.8337
29.8199
29.8043
29.7867
29.7675
29.7456
29.9093
29.91
29.9089
29.9064
29.9028
29.8983
29.893
29.8869
29.8801
29.8724
29.8639
29.8544
29.844
29.8323
29.8195
29.8053
29.7896
29.7723
29.9188
29.9178
29.916
29.9131
29.9094
29.9051
29.9001
29.8946
29.8885
29.8818
29.8745
29.8666
29.8581
29.8488
29.8388
29.828
29.8159
29.8032
29.9288
29.9265
29.9239
29.9204
29.9163
29.9118
29.9069
29.9017
29.8962
29.8903
29.8841
29.8776
29.8706
29.8634
29.8558
29.8478
29.8386
29.8291
29.936
29.9332
29.9301
29.9258
29.9212
29.9164
29.9114
29.9063
29.9011
29.8958
29.8904
29.8849
29.8793
29.8735
29.8678
29.8619
29.8549
29.8476
29.9417
29.9387
29.9349
29.9298
29.9245
29.9193
29.914
29.9088
29.9038
29.8989
29.8941
29.8893
29.8847
29.8801
29.8757
29.8714
29.8661
29.8604
29.9461
29.9432
29.9386
29.9325
29.9265
29.9207
29.9151
29.9097
29.9048
29.9001
29.8957
29.8916
29.8876
29.8839
29.8806
29.8774
29.8733
29.8685
29.9493
29.9472
29.9417
29.9344
29.9277
29.9212
29.9152
29.9096
29.9047
29.9002
29.8961
29.8924
29.8891
29.886
29.8834
29.881
29.8779
29.8737
29.9523
29.9518
29.9444
29.9358
29.9284
29.9212
29.9146
29.9089
29.9039
29.8995
29.8957
29.8924
29.8895
29.8871
29.885
29.8833
29.8811
29.8773
29.9551
29.9586
29.9479
29.9372
29.9288
29.9209
29.9137
29.9077
29.9027
29.8985
29.8949
29.8919
29.8894
29.8875
29.8859
29.8848
29.8833
29.88
29.9467
29.9649
29.9516
29.9386
29.929
29.9201
29.9124
29.9063
29.9013
29.8972
29.8938
29.8911
29.8891
29.8875
29.8865
29.8859
29.8852
29.8824
29.9128
29.9591
29.9508
29.9388
29.9283
29.9183
29.9104
29.9044
29.8996
29.8957
29.8927
29.8903
29.8886
29.8875
29.8869
29.8868
29.8868
29.8847
29.9363
29.9499
29.9438
29.9366
29.9262
29.9155
29.9075
29.9019
29.8976
29.8941
29.8914
29.8895
29.8882
29.8874
29.8873
29.8875
29.888
29.8871
30.318
30.0535
29.9591
29.9384
29.9256
29.9142
29.9062
29.9008
29.8967
29.8934
29.8909
29.8892
29.8881
29.8876
29.8876
29.8881
29.8889
29.889
25.1326
25.137
25.1422
25.1481
25.1545
25.1612
25.1679
25.1742
25.1797
25.1844
25.1878
25.1898
25.1902
25.1889
25.1856
25.1801
25.1723
25.162
25.1489
25.133
25.1142
25.0929
25.0704
25.047
25.0222
24.995
24.9639
24.9307
24.8956
24.8543
24.8091
24.766
24.7208
24.6685
24.6119
24.5532
24.4895
24.4279
24.3836
24.335
24.2695
24.2029
24.1373
24.0729
24.0104
23.9503
23.893
23.8387
23.7876
23.7397
23.6952
23.654
23.6161
23.5812
23.5494
23.5204
23.4941
23.4703
23.449
23.4298
23.4126
23.3973
23.3835
23.371
23.3596
23.3488
23.3383
23.3278
23.3167
23.3043
23.2902
23.274
23.2552
23.233
23.2067
23.1758
23.1395
23.0972
23.0484
22.9923
22.9286
22.8567
22.7765
22.6875
22.5899
22.4836
22.3686
22.2451
22.1134
21.9736
21.8253
21.6679
21.5008
21.323
21.1336
20.9317
20.7164
20.4869
20.242
19.9806
19.7013
19.4025
19.0822
18.7381
18.3677
17.9677
17.5346
17.0641
16.5517
15.9923
15.3869
14.7447
14.0719
13.3744
12.6653
11.9558
11.2508
10.5527
9.86281
9.18854
8.54191
7.88764
7.27482
6.74786
6.19504
5.64693
5.1946
4.76695
4.31511
3.89452
3.55665
3.23755
2.93788
2.68004
2.43751
2.24546
2.08577
1.93963
1.81791
1.71705
1.63129
1.5584
1.49683
1.44539
1.40303
1.36877
1.3418
1.3214
1.30694
1.29788
1.29379
1.29421
1.29877
1.30712
1.31896
1.33398
1.35186
1.37215
1.39433
1.41784
1.44214
1.46666
1.49071
1.51347
1.53419
1.55225
1.56706
1.57818
1.58552
1.58909
1.58878
1.58459
1.57666
1.56536
1.5512
1.53484
1.51708
1.49898
1.48284
1.47097
25.1371
25.1411
25.1444
25.1487
25.154
25.1604
25.1673
25.1744
25.1812
25.1872
25.1923
25.196
25.1982
25.1988
25.1976
25.1942
25.1885
25.1802
25.1691
25.1551
25.1385
25.1199
25.0996
25.0776
25.0542
25.0289
25.0006
24.9685
24.9322
24.8924
24.8514
24.81
24.767
24.7224
24.6782
24.6314
24.5808
24.5311
24.4635
24.3777
24.299
24.226
24.1555
24.0878
24.0229
23.9612
23.9028
23.8479
23.7965
23.7486
23.7043
23.6633
23.6257
23.5912
23.5597
23.531
23.5051
23.4816
23.4605
23.4415
23.4245
23.4092
23.3955
23.383
23.3714
23.3605
23.3498
23.339
23.3275
23.3151
23.3011
23.2849
23.2659
23.2433
23.2166
23.1849
23.1477
23.1044
23.0543
22.9969
22.9317
22.8582
22.7762
22.6855
22.5859
22.4775
22.3604
22.235
22.1013
21.9594
21.8088
21.6491
21.4794
21.2988
21.1063
20.9012
20.6825
20.4493
20.2006
19.9353
19.6519
19.3489
19.0244
18.6761
18.3015
17.8975
17.4606
16.9869
16.4722
15.9127
15.3086
14.6665
13.995
13.3011
12.5958
11.8902
11.1896
10.4964
9.81157
9.13918
8.48977
7.83083
7.2582
6.7399
6.15336
5.62834
5.20754
4.76903
4.29674
3.89123
3.57114
3.2382
2.94397
2.68421
2.43931
2.25991
2.095
1.94915
1.82989
1.72943
1.64334
1.5696
1.5069
1.45425
1.41059
1.37499
1.34676
1.32516
1.30941
1.29897
1.29342
1.29238
1.29549
1.30243
1.31284
1.32633
1.34254
1.36126
1.38213
1.40456
1.42782
1.4513
1.47441
1.49651
1.51685
1.53467
1.54946
1.5608
1.56843
1.57238
1.57263
1.56915
1.5621
1.5518
1.53871
1.52347
1.50686
1.48981
1.4743
1.4611
25.1613
25.1647
25.1663
25.1689
25.1732
25.1792
25.1863
25.1937
25.2009
25.2074
25.2128
25.2167
25.2191
25.2197
25.2186
25.2153
25.2098
25.2019
25.1915
25.1788
25.1637
25.1465
25.1273
25.1063
25.0831
25.0576
25.0292
24.997
24.9602
24.9193
24.8764
24.8323
24.7857
24.7364
24.6857
24.6328
24.5762
24.517
24.4519
24.3788
24.305
24.2329
24.1629
24.0956
24.0314
23.9705
23.913
23.8591
23.8087
23.7618
23.7183
23.6781
23.6412
23.6073
23.5763
23.5481
23.5225
23.4994
23.4786
23.4599
23.4432
23.4281
23.4146
23.4023
23.3909
23.38
23.3694
23.3586
23.347
23.3343
23.32
23.3033
23.2837
23.2604
23.2328
23.2002
23.1619
23.1172
23.0655
23.0063
22.9391
22.8633
22.7788
22.6853
22.5827
22.4709
22.3503
22.2212
22.0837
21.9379
21.7834
21.6197
21.4458
21.2608
21.0638
20.8538
20.6299
20.3912
20.1368
19.8654
19.5757
19.2662
18.935
18.5798
18.1984
17.7877
17.3445
16.8655
16.347
15.7864
15.1843
14.5456
13.8779
13.1895
12.4905
11.7911
11.0969
10.4108
9.73495
9.07327
8.43175
7.80384
7.22124
6.67992
6.13734
5.6245
5.17067
4.73606
4.30055
3.90483
3.56433
3.24373
2.95543
2.69847
2.46818
2.27781
2.11262
1.96846
1.84652
1.74425
1.65705
1.58224
1.51849
1.46474
1.41996
1.38326
1.35368
1.33072
1.3136
1.30174
1.29471
1.29215
1.29371
1.29906
1.30788
1.31979
1.33443
1.35158
1.37096
1.39199
1.41396
1.43625
1.45833
1.4796
1.49931
1.51671
1.53136
1.54283
1.55087
1.55544
1.55648
1.55396
1.54799
1.53885
1.52697
1.51292
1.49744
1.48136
1.46627
1.45211
25.2082
25.2089
25.2075
25.2072
25.2096
25.2145
25.2209
25.2279
25.2348
25.241
25.246
25.2496
25.2515
25.2519
25.2503
25.2468
25.2411
25.2332
25.2231
25.2107
25.1962
25.1795
25.1606
25.1394
25.1158
25.0894
25.0599
25.027
24.99
24.949
24.9049
24.8582
24.8087
24.7562
24.7009
24.6429
24.5822
24.5188
24.4527
24.3839
24.3142
24.2449
24.1771
24.1115
24.0485
23.9887
23.9321
23.8789
23.8291
23.7828
23.7397
23.7
23.6634
23.6298
23.5991
23.5712
23.5458
23.5229
23.5022
23.4836
23.4669
23.4519
23.4383
23.4259
23.4144
23.4034
23.3925
23.3813
23.3693
23.356
23.3407
23.323
23.302
23.2772
23.2478
23.2131
23.1725
23.1252
23.0707
23.0084
22.9377
22.8581
22.7696
22.6716
22.564
22.447
22.3209
22.186
22.0426
21.8907
21.7301
21.5601
21.3798
21.1883
20.9844
20.7673
20.5361
20.29
20.0279
19.7487
19.4513
19.1339
18.7948
18.4321
18.0433
17.6259
17.1771
16.6939
16.1735
15.6144
15.0172
14.3861
13.7279
13.051
12.3648
11.6776
10.995
10.3205
9.65712
9.00884
8.38037
7.7715
7.19037
6.64468
6.12263
5.62081
5.15597
4.72417
4.31131
3.92607
3.57968
3.26591
2.98227
2.72972
2.50593
2.31029
2.14365
1.999
1.87365
1.76862
1.67923
1.60253
1.53701
1.48155
1.43507
1.39667
1.36551
1.34076
1.32194
1.30837
1.29962
1.29533
1.29516
1.29878
1.3059
1.31616
1.32925
1.34491
1.36283
1.38247
1.40317
1.42436
1.4455
1.46599
1.4851
1.50213
1.51662
1.52816
1.53652
1.54155
1.54318
1.54136
1.53618
1.5279
1.5169
1.50372
1.48901
1.47348
1.45833
1.44323
25.2823
25.2799
25.2739
25.2695
25.2685
25.2707
25.275
25.2803
25.2857
25.2906
25.2943
25.2968
25.2978
25.2971
25.2947
25.2904
25.284
25.2756
25.265
25.2522
25.2373
25.2201
25.2006
25.1786
25.1539
25.1263
25.0956
25.0613
25.0233
24.9816
24.9365
24.8882
24.8368
24.7823
24.725
24.6651
24.6028
24.5384
24.4724
24.405
24.3374
24.2704
24.2047
24.1409
24.0795
24.0208
23.9652
23.9127
23.8634
23.8175
23.7747
23.7351
23.6985
23.6649
23.6341
23.6059
23.5803
23.5571
23.536
23.5169
23.4997
23.484
23.4697
23.4565
23.4439
23.4318
23.4196
23.4069
23.3933
23.378
23.3607
23.3406
23.317
23.2893
23.2567
23.2186
23.1742
23.123
23.0641
22.9971
22.9214
22.8367
22.7421
22.6378
22.5235
22.3995
22.266
22.1234
21.972
21.812
21.643
21.4645
21.2755
21.075
20.862
20.6357
20.3952
20.1397
19.8682
19.5798
19.2733
18.9471
18.5996
18.2291
17.8335
17.4105
16.9578
16.473
15.9542
15.4005
14.8131
14.1955
13.5539
12.8955
12.2282
11.5591
10.8935
10.2354
9.5885
8.95646
8.34303
7.74943
7.17816
6.63733
6.12508
5.63403
5.17155
4.74293
4.34126
3.96473
3.62002
3.30957
3.02906
2.77863
2.55599
2.35862
2.1888
2.04123
1.91307
1.8044
1.71173
1.63217
1.56403
1.5061
1.45726
1.41653
1.38309
1.35615
1.33519
1.31951
1.30869
1.30237
1.30019
1.30187
1.3071
1.31558
1.327
1.3411
1.35753
1.37576
1.39522
1.41534
1.43558
1.45533
1.47389
1.49059
1.50493
1.51651
1.52505
1.53038
1.53238
1.53102
1.52636
1.51865
1.50825
1.49563
1.48139
1.46611
1.45065
1.4347
25.3864
25.3806
25.3689
25.3592
25.3534
25.3517
25.3526
25.355
25.3577
25.3601
25.3616
25.362
25.3611
25.3586
25.3544
25.3484
25.3405
25.3307
25.3188
25.3048
25.2887
25.2703
25.2496
25.2263
25.2002
25.1711
25.1388
25.1031
25.0638
25.0209
24.9746
24.9251
24.8725
24.817
24.7588
24.6984
24.6361
24.5722
24.5072
24.4415
24.3759
24.3109
24.2472
24.1852
24.1253
24.0679
24.0132
23.9614
23.9126
23.8668
23.824
23.7842
23.7473
23.7132
23.6818
23.6529
23.6265
23.6024
23.5803
23.5601
23.5416
23.5246
23.5088
23.4938
23.4795
23.4653
23.4508
23.4357
23.4194
23.4012
23.3807
23.3571
23.3298
23.298
23.2612
23.2185
23.1692
23.1126
23.0481
22.9751
22.893
22.8014
22.6997
22.5877
22.4653
22.3327
22.1902
22.0383
21.8772
21.7073
21.5281
21.3393
21.1398
20.9287
20.7051
20.4682
20.2171
19.9511
19.6695
19.3712
19.0552
18.7203
18.3649
17.9876
17.5865
17.1597
16.7055
16.222
15.7079
15.163
14.5887
13.9881
13.3665
12.7299
12.085
11.4377
10.793
10.1552
9.52771
8.91415
8.31751
7.73926
7.18134
6.65018
6.1465
5.66529
5.21011
4.78617
4.39058
4.02075
3.68034
3.37204
3.09278
2.84259
2.61916
2.41979
2.24639
2.09513
1.96335
1.8504
1.75367
1.67048
1.59902
1.53796
1.48613
1.44253
1.40631
1.37676
1.35315
1.33499
1.32175
1.31308
1.30864
1.30813
1.31129
1.31782
1.32742
1.33983
1.35467
1.37146
1.38963
1.40866
1.42799
1.44699
1.465
1.48134
1.4955
1.50706
1.5157
1.52122
1.52346
1.52239
1.51808
1.51075
1.50073
1.48848
1.47449
1.45927
1.44343
1.42675
25.5204
25.5105
25.4928
25.4769
25.4655
25.4587
25.4551
25.4533
25.4522
25.451
25.4493
25.4466
25.4428
25.4376
25.4308
25.4224
25.4122
25.4003
25.3865
25.3707
25.3527
25.3326
25.3101
25.285
25.2572
25.2263
25.1923
25.155
25.1143
25.0702
25.0229
24.9724
24.9191
24.8632
24.8049
24.7448
24.683
24.62
24.5563
24.4922
24.4284
24.3652
24.3032
24.2427
24.1841
24.1277
24.0737
24.0223
23.9737
23.9278
23.8847
23.8444
23.8068
23.7719
23.7396
23.7097
23.682
23.6566
23.6331
23.6113
23.5911
23.5723
23.5545
23.5374
23.5207
23.5039
23.4868
23.4687
23.4491
23.4275
23.4032
23.3756
23.3439
23.3076
23.2658
23.2178
23.1628
23.1002
23.0293
22.9495
22.8602
22.7608
22.6508
22.5301
22.3985
22.2561
22.1034
21.9409
21.7688
21.5876
21.397
21.1966
20.9854
20.7627
20.5274
20.2789
20.0166
19.7397
19.4476
19.1395
18.8145
18.4714
18.1091
17.7261
17.3211
16.8925
16.4389
15.959
15.4519
14.9179
14.3584
13.7762
13.1756
12.5619
11.9405
11.3166
10.6948
10.079
9.47249
8.87855
8.29972
7.73773
7.19473
6.67541
6.18118
5.70971
5.26306
4.84485
4.45431
4.09002
3.75382
3.44721
3.16845
2.9175
2.6923
2.49076
2.31365
2.15829
2.02233
1.90477
1.80352
1.71616
1.64083
1.57612
1.52082
1.4739
1.43446
1.40181
1.37528
1.35433
1.33839
1.32712
1.32017
1.31728
1.31818
1.32259
1.33024
1.34083
1.354
1.36927
1.38611
1.404
1.42237
1.44061
1.45803
1.47397
1.48791
1.49939
1.50806
1.51367
1.51606
1.51517
1.51107
1.50397
1.4942
1.48214
1.46827
1.45299
1.43674
1.4194
25.683
25.6685
25.6446
25.622
25.6044
25.5917
25.5826
25.5757
25.5699
25.5642
25.5582
25.5516
25.544
25.5351
25.525
25.5135
25.5004
25.4857
25.4692
25.451
25.4307
25.4083
25.3836
25.3563
25.3264
25.2935
25.2576
25.2186
25.1764
25.1311
25.0828
25.0317
24.9779
24.9218
24.8637
24.8039
24.7428
24.6807
24.6181
24.5554
24.4928
24.4309
24.3701
24.3106
24.2529
24.1971
24.1435
24.0922
24.0434
23.9971
23.9535
23.9124
23.8739
23.838
23.8044
23.7732
23.7442
23.7172
23.692
23.6685
23.6465
23.6257
23.6057
23.5864
23.5672
23.5479
23.5279
23.5068
23.484
23.4589
23.4309
23.3992
23.3632
23.3222
23.2753
23.2219
23.1612
23.0923
23.0147
22.9276
22.8306
22.7229
22.6041
22.4739
22.3323
22.1795
22.0157
21.8416
21.6576
21.4642
21.2612
21.0482
20.8244
20.5892
20.3416
20.0811
19.807
19.519
19.2165
18.8988
18.5651
18.2146
17.8462
17.4588
17.0512
16.6223
16.1708
15.696
15.1973
14.6751
14.1309
13.5671
12.9876
12.3965
11.7986
11.1982
10.5996
10.0061
9.42093
8.8469
8.28634
7.74115
7.21359
6.70709
6.22333
5.76179
5.32391
4.91213
4.52676
4.16737
3.8349
3.52991
3.25149
2.99956
2.77252
2.56848
2.38766
2.2281
2.08778
1.96552
1.85955
1.76771
1.68816
1.61944
1.56031
1.50972
1.46676
1.43071
1.40097
1.37696
1.35811
1.34402
1.33439
1.32893
1.32742
1.32958
1.33515
1.34381
1.35522
1.3689
1.38436
1.40106
1.41843
1.43586
1.45266
1.46816
1.48182
1.49318
1.50182
1.50745
1.5099
1.5091
1.50511
1.49814
1.48848
1.47651
1.46263
1.44722
1.43056
1.41264
25.8731
25.8538
25.8235
25.794
25.7696
25.7504
25.735
25.7221
25.7105
25.6995
25.6885
25.677
25.6647
25.6515
25.6373
25.6219
25.6051
25.587
25.5673
25.546
25.5229
25.4977
25.4703
25.4406
25.4082
25.3732
25.3352
25.2944
25.2507
25.2041
25.1548
25.1029
25.0487
24.9924
24.9343
24.8747
24.8141
24.7526
24.6907
24.6287
24.567
24.5059
24.4457
24.3867
24.3293
24.2736
24.2199
24.1684
24.1191
24.0722
24.0277
23.9857
23.9461
23.9089
23.8741
23.8414
23.8109
23.7823
23.7555
23.7303
23.7064
23.6836
23.6617
23.6403
23.6189
23.5973
23.5748
23.5511
23.5254
23.4972
23.4658
23.4306
23.3907
23.3454
23.2939
23.2354
23.1691
23.0942
23.01
22.9158
22.811
22.6949
22.567
22.4271
22.2751
22.1111
21.9357
21.7494
21.5528
21.3463
21.1301
20.9037
20.6667
20.4182
20.1577
19.8846
19.5986
19.2992
18.9862
18.659
18.317
17.9596
17.5858
17.1947
16.7855
16.3571
15.9087
15.4397
14.9499
14.4398
13.9107
13.365
12.8056
12.2363
11.661
11.0835
10.5074
9.93588
9.37169
8.81736
8.27504
7.74672
7.23462
6.7414
6.26881
5.81738
5.38833
4.98343
4.6035
4.24878
3.91973
3.61645
3.33846
3.08571
2.857
2.65041
2.46603
2.30238
2.15776
2.03088
1.92018
1.82374
1.73978
1.66683
1.60364
1.54914
1.50243
1.46276
1.42958
1.40232
1.38039
1.36334
1.35087
1.34273
1.33867
1.33846
1.34184
1.34849
1.35805
1.37008
1.38409
1.39955
1.41589
1.43246
1.44859
1.46361
1.47697
1.48815
1.4967
1.5023
1.50474
1.50396
1.50001
1.49307
1.48344
1.47147
1.45751
1.4419
1.42486
1.40641
26.0896
26.0654
26.0287
25.9923
25.9608
25.9343
25.9118
25.892
25.8739
25.8565
25.8394
25.8221
25.8044
25.786
25.7669
25.7468
25.7258
25.7036
25.6801
25.6552
25.6287
25.6003
25.57
25.5374
25.5024
25.4649
25.4248
25.3821
25.3367
25.2887
25.2382
25.1855
25.1306
25.0739
25.0157
24.9561
24.8955
24.8342
24.7726
24.7108
24.6493
24.5884
24.5283
24.4693
24.4118
24.3558
24.3016
24.2495
24.1994
24.1516
24.1061
24.0629
24.0221
23.9836
23.9473
23.9131
23.8811
23.8509
23.8225
23.7956
23.7701
23.7456
23.722
23.6988
23.6757
23.6522
23.6278
23.602
23.5742
23.5437
23.5097
23.4716
23.4286
23.3799
23.3245
23.2617
23.1906
23.1103
23.0201
22.9192
22.8069
22.6826
22.5458
22.3961
22.2335
22.0582
21.8707
21.6717
21.4618
21.2417
21.0115
20.7711
20.52
20.2576
19.9835
19.6973
19.3988
19.0877
18.764
18.4272
18.077
17.7128
17.3338
16.9395
16.529
16.1016
15.6567
15.1938
14.7129
14.2146
13.7001
13.1714
12.6311
12.0824
11.5286
10.9729
10.4184
9.86796
9.32403
8.78886
8.26446
7.75278
7.25591
6.77609
6.31505
5.87382
5.45361
5.05581
4.68154
4.33141
4.00571
3.70431
3.42692
3.17375
2.94342
2.73441
2.54676
2.37934
2.23062
2.09932
1.98403
1.88302
1.7946
1.71731
1.64993
1.59139
1.54077
1.49735
1.46056
1.42992
1.4048
1.38468
1.36927
1.35832
1.35163
1.34896
1.35005
1.3546
1.36225
1.37257
1.38508
1.39924
1.41448
1.43016
1.44558
1.46011
1.47313
1.48408
1.49249
1.498
1.50039
1.49957
1.49559
1.48862
1.47895
1.46692
1.45284
1.437
1.41959
1.40068
26.3314
26.3022
26.2594
26.2161
26.1771
26.1429
26.1127
26.0851
26.0593
26.0346
26.0104
25.9864
25.9622
25.9378
25.913
25.8877
25.8617
25.8348
25.807
25.778
25.7476
25.7157
25.682
25.6463
25.6085
25.5685
25.526
25.4812
25.434
25.3845
25.3328
25.279
25.2233
25.1659
25.1071
25.0472
24.9863
24.9248
24.863
24.8011
24.7394
24.6781
24.6177
24.5583
24.5001
24.4434
24.3885
24.3353
24.2842
24.2352
24.1884
24.1438
24.1016
24.0615
24.0237
23.9879
23.9543
23.9225
23.8925
23.8641
23.837
23.8112
23.7861
23.7616
23.7372
23.7125
23.6869
23.6599
23.6308
23.5989
23.5634
23.5236
23.4786
23.4275
23.3695
23.3035
23.2287
23.144
23.0487
22.9419
22.8229
22.691
22.5457
22.3865
22.2135
22.0268
21.8271
21.6151
21.3915
21.1572
20.9124
20.6571
20.3912
20.1141
19.8256
19.5255
19.2139
18.8906
18.5557
18.209
17.8502
17.479
17.0949
16.6973
16.2856
15.8592
15.4176
14.9606
14.4883
14.0011
13.5003
12.9876
12.4652
11.9357
11.4019
10.8667
10.3327
9.8023
9.27773
8.76099
8.25395
7.75847
7.27648
6.80996
6.36056
5.92953
5.51812
5.12765
4.75924
4.4136
4.09111
3.79171
3.51516
3.26182
3.03025
2.81906
2.6284
2.45747
2.30489
2.16945
2.04982
1.94441
1.85159
1.76998
1.69839
1.63575
1.58116
1.53391
1.49345
1.4593
1.43093
1.40768
1.38927
1.37545
1.36604
1.36082
1.35956
1.36194
1.36762
1.37617
1.38712
1.39993
1.41404
1.42878
1.44348
1.45747
1.47011
1.48079
1.48902
1.4944
1.4967
1.49579
1.49173
1.48469
1.47493
1.46278
1.44854
1.43247
1.41471
1.39539
26.5969
26.5627
26.5142
26.4644
26.4181
26.376
26.3375
26.3016
26.2675
26.2346
26.2025
26.1709
26.1396
26.1084
26.0771
26.0457
26.014
25.9818
25.949
25.9154
25.8807
25.8448
25.8073
25.7683
25.7274
25.6845
25.6396
25.5925
25.5434
25.4921
25.4389
25.3839
25.3271
25.2689
25.2093
25.1487
25.0872
25.0251
24.9627
24.9002
24.8379
24.7759
24.7147
24.6544
24.5952
24.5374
24.4812
24.4267
24.3741
24.3236
24.2751
24.2288
24.1848
24.1429
24.1033
24.0657
24.0302
23.9967
23.965
23.935
23.9065
23.8793
23.8531
23.8277
23.8025
23.7772
23.7512
23.7239
23.6945
23.6623
23.6266
23.5864
23.5408
23.4889
23.4297
23.362
23.285
23.1974
23.0985
22.987
22.8624
22.7238
22.5709
22.4029
22.2199
22.0222
21.8104
21.5852
21.3478
21.0988
20.8388
20.568
20.2864
19.9937
19.69
19.3752
19.0495
18.7133
18.3665
18.0092
17.6414
17.2628
16.8732
16.4719
16.0586
15.6329
15.1943
14.7427
14.2782
13.8013
13.3131
12.815
12.3089
11.7972
11.282
10.7658
10.2509
9.73935
9.23307
8.73387
8.24347
7.76359
7.29601
6.84249
6.4046
5.9838
5.58134
5.19805
4.83531
4.49413
4.17503
3.87789
3.60252
3.34939
3.11694
2.9039
2.71053
2.53629
2.38004
2.24059
2.11669
2.00694
1.90981
1.82398
1.74824
1.68156
1.62302
1.57194
1.52778
1.49014
1.45843
1.43203
1.41057
1.39384
1.38167
1.37387
1.37019
1.37035
1.374
1.38072
1.39006
1.40149
1.41441
1.4282
1.44216
1.45559
1.4678
1.47818
1.48618
1.4914
1.49355
1.49252
1.48834
1.48118
1.47129
1.459
1.44458
1.42827
1.4102
1.39051
26.8848
26.8459
26.7925
26.7371
26.6841
26.6345
26.588
26.5438
26.5012
26.4599
26.4195
26.3798
26.3406
26.3018
26.2634
26.2251
26.187
26.1487
26.1101
26.0711
26.0314
25.9909
25.9492
25.9062
25.8618
25.8157
25.7679
25.7183
25.6669
25.6136
25.5587
25.5021
25.444
25.3845
25.3238
25.2621
25.1996
25.1366
25.0732
25.0096
24.9462
24.8831
24.8206
24.7589
24.6982
24.6387
24.5807
24.5243
24.4697
24.4171
24.3664
24.3179
24.2716
24.2274
24.1854
24.1456
24.1078
24.0722
24.0384
24.0066
23.9764
23.9479
23.9207
23.8945
23.869
23.8436
23.8179
23.7911
23.7626
23.7314
23.6968
23.6577
23.6133
23.5623
23.5037
23.4363
23.3589
23.2704
23.1696
23.0553
22.9268
22.7832
22.6237
22.4481
22.2561
22.048
21.8246
21.5867
21.3354
21.0716
20.7961
20.5092
20.2112
19.9022
19.5823
19.2519
18.9115
18.5613
18.2018
17.8333
17.4557
17.0691
16.6732
16.2677
15.8523
15.4266
14.9902
14.5432
14.0855
13.6177
13.1407
12.6557
12.1644
11.6687
11.1704
10.6716
10.1743
9.68014
9.19091
8.70817
8.23348
7.76842
7.31461
6.8737
6.44728
6.03643
5.64243
5.26607
4.90903
4.57235
4.25673
3.96212
3.68835
3.43595
3.203
2.98857
2.79289
2.61563
2.45587
2.31253
2.18446
2.0704
1.96898
1.87887
1.79896
1.72822
1.66577
1.61091
1.56309
1.52192
1.48693
1.45741
1.43292
1.41328
1.39833
1.3879
1.38177
1.37967
1.38126
1.38613
1.39382
1.40383
1.41557
1.42838
1.44156
1.45437
1.46612
1.47615
1.48389
1.4889
1.49088
1.48969
1.48535
1.47803
1.46799
1.45553
1.44092
1.42438
1.40602
1.38601
27.193
27.1501
27.0933
27.0339
26.9755
26.9195
26.8656
26.8135
26.7626
26.7129
26.664
26.6158
26.5683
26.5214
26.4751
26.4293
26.3838
26.3386
26.2934
26.2482
26.2027
26.1567
26.1099
26.0623
26.0136
25.9637
25.9124
25.8597
25.8054
25.7497
25.6924
25.6338
25.5738
25.5126
25.4503
25.3871
25.3231
25.2586
25.1936
25.1285
25.0635
24.9986
24.9342
24.8705
24.8077
24.7459
24.6855
24.6265
24.5693
24.5138
24.4603
24.4089
24.3595
24.3124
24.2674
24.2246
24.184
24.1455
24.1092
24.075
24.0428
24.0126
23.9842
23.9573
23.9316
23.9066
23.8817
23.8563
23.8295
23.8006
23.7685
23.7321
23.6905
23.6424
23.5866
23.5216
23.4462
23.359
23.2587
23.1439
23.0136
22.8669
22.7031
22.5216
22.3222
22.1053
21.8714
21.6217
21.3572
21.079
20.7881
20.4851
20.1704
19.8446
19.508
19.1614
18.8053
18.4404
18.0675
17.6868
17.2986
16.9032
16.5003
16.0898
15.6713
15.2447
14.8096
14.3659
13.9138
13.4536
12.9862
12.5126
12.0342
11.5525
11.0692
10.5859
10.1044
9.62603
9.15238
8.68481
8.22471
7.7735
7.33283
6.90419
6.48853
6.08697
5.70084
5.33113
4.97945
4.64729
4.33534
4.04357
3.77173
3.52024
3.28742
3.07209
2.87458
2.69476
2.53189
2.38499
2.253
2.13476
2.02906
1.93468
1.85056
1.77574
1.70934
1.65067
1.59917
1.55447
1.51619
1.4836
1.45613
1.4336
1.41587
1.40282
1.39424
1.38986
1.38937
1.39236
1.39841
1.40698
1.4175
1.42929
1.44163
1.45379
1.46503
1.47467
1.48211
1.48688
1.48865
1.48726
1.48273
1.47522
1.46499
1.45234
1.43753
1.42076
1.40215
1.38186
27.5183
27.4735
27.4147
27.3513
27.2871
27.2238
27.1618
27.1011
27.0413
26.9826
26.9247
26.8677
26.8115
26.7562
26.7017
26.6479
26.5947
26.5421
26.4899
26.4379
26.386
26.3339
26.2815
26.2287
26.1751
26.1207
26.0652
26.0087
25.9511
25.8922
25.8321
25.7707
25.7083
25.6448
25.5803
25.515
25.4491
25.3825
25.3156
25.2485
25.1813
25.1142
25.0475
24.9813
24.9159
24.8514
24.7881
24.7261
24.6657
24.6069
24.5501
24.4952
24.4423
24.3916
24.3431
24.2967
24.2526
24.2107
24.1712
24.134
24.0992
24.0668
24.0368
24.0089
23.9828
23.9581
23.9342
23.9104
23.8858
23.8596
23.8307
23.798
23.7603
23.7163
23.6646
23.6037
23.532
23.448
23.3501
23.2369
23.107
22.9593
22.7931
22.6078
22.4032
22.1794
21.9371
21.6774
21.4015
21.1105
20.8057
20.4879
20.1578
19.8162
19.4639
19.1019
18.7311
18.3523
17.9665
17.5742
17.176
16.7719
16.3622
15.9466
15.5249
15.0969
14.6623
14.2211
13.7733
13.3192
12.8596
12.3952
11.9274
11.4574
10.9866
10.5164
10.0483
9.58342
9.12319
8.66882
8.22152
7.78286
7.35414
6.93606
6.5297
6.13624
5.75687
5.39313
5.04664
4.71872
4.41022
4.12121
3.85138
3.60098
3.36858
3.15272
2.95376
2.77179
2.60621
2.45614
2.32061
2.19855
2.08885
1.99041
1.90223
1.82339
1.75308
1.69061
1.63546
1.58726
1.54568
1.51008
1.4797
1.45433
1.43389
1.41827
1.40727
1.40065
1.39811
1.39925
1.40365
1.41078
1.42004
1.43078
1.44226
1.45373
1.46443
1.47365
1.48076
1.48525
1.48677
1.48516
1.4804
1.47268
1.46225
1.4494
1.43438
1.41741
1.39857
1.37803
27.8737
27.8219
27.7541
27.6811
27.6064
27.5321
27.459
27.387
27.3164
27.2471
27.1791
27.1125
27.0471
26.983
26.9201
26.8584
26.7976
26.7377
26.6785
26.6198
26.5615
26.5033
26.4451
26.3868
26.3282
26.2691
26.2093
26.1488
26.0875
26.0253
25.962
25.8975
25.8324
25.7664
25.6995
25.6319
25.5637
25.4947
25.4257
25.3564
25.287
25.2177
25.1487
25.0801
25.0121
24.9449
24.8787
24.8138
24.7502
24.6882
24.6279
24.5695
24.513
24.4586
24.4063
24.3561
24.3081
24.2624
24.2191
24.1784
24.1404
24.1052
24.0728
24.0432
24.016
23.9909
23.9673
23.9444
23.9214
23.8974
23.8712
23.8418
23.8078
23.768
23.7206
23.6641
23.5967
23.5167
23.4223
23.3119
23.1838
23.037
22.8705
22.6836
22.4764
22.2486
22.0008
21.7343
21.4502
21.1499
20.8345
20.5053
20.1632
19.8092
19.4446
19.0703
18.6876
18.2977
17.9014
17.4997
17.0931
16.682
16.2664
15.8463
15.4216
14.992
14.5572
14.1172
13.6721
13.2222
12.768
12.3103
11.8502
11.3889
10.9275
10.4672
10.0093
9.55509
9.10556
8.66202
8.2257
7.79743
7.37806
6.96846
6.56962
6.18273
5.80939
5.45106
5.10916
4.78503
4.47967
4.19326
3.92546
3.67635
3.44458
3.22856
3.02857
2.8449
2.67708
2.52431
2.38569
2.26025
2.14698
2.04487
1.95297
1.87041
1.79643
1.73037
1.67173
1.62015
1.57539
1.53681
1.5036
1.47549
1.4524
1.43426
1.4209
1.41208
1.4075
1.40679
1.40952
1.41517
1.42316
1.43282
1.4434
1.45415
1.46428
1.47305
1.4798
1.48399
1.48524
1.48336
1.47836
1.4704
1.45974
1.44668
1.43146
1.41429
1.39526
1.3745
28.2286
28.1673
28.0881
28.0045
27.9188
27.8331
27.7484
27.665
27.583
27.5027
27.424
27.3471
27.2719
27.1985
27.1268
27.0566
26.988
26.9208
26.8548
26.7892
26.7249
26.6612
26.5979
26.5346
26.4714
26.408
26.3443
26.2801
26.2153
26.1498
26.0836
26.0165
25.9487
25.8801
25.8107
25.7407
25.67
25.5989
25.5275
25.4559
25.3841
25.3124
25.2408
25.1696
25.0988
25.0287
24.9595
24.8913
24.8244
24.7589
24.695
24.6328
24.5726
24.5143
24.4579
24.4036
24.3514
24.3015
24.2539
24.209
24.1671
24.1284
24.093
24.0609
24.0321
24.0061
23.9823
23.96
23.9383
23.9163
23.893
23.8671
23.8373
23.8023
23.7602
23.7094
23.6478
23.5736
23.4846
23.3791
23.2553
23.1118
22.9476
22.7622
22.5546
22.3256
22.0752
21.8046
21.5151
21.208
20.8847
20.5465
20.1946
19.8304
19.4551
19.0702
18.677
18.2769
17.871
17.4603
17.0455
16.6272
16.2054
15.7802
15.3515
14.9191
14.4828
14.0424
13.5981
13.1502
12.6991
12.2456
11.7908
11.3355
10.881
10.4282
9.97845
9.53285
9.09257
8.65849
8.23107
7.81124
7.39988
6.99749
6.60527
6.22474
5.85722
5.50404
5.16656
4.84615
4.54391
4.26021
3.99467
3.74716
3.51641
3.30067
3.10016
2.91533
2.74579
2.59083
2.44961
2.32125
2.20481
2.09938
2.00407
1.91806
1.84063
1.77116
1.70917
1.6543
1.60636
1.56487
1.52888
1.49804
1.4723
1.45162
1.43586
1.42478
1.41811
1.41548
1.41647
1.42058
1.42721
1.43571
1.44534
1.45529
1.46479
1.47305
1.47938
1.4832
1.48412
1.48194
1.47664
1.4684
1.45749
1.4442
1.42878
1.41141
1.39219
1.37126
28.5372
28.4707
28.3872
28.298
28.2062
28.1142
28.0224
27.9314
27.8415
27.7528
27.6658
27.5804
27.4973
27.416
27.3364
27.2587
27.1826
27.1082
27.0353
26.9637
26.8934
26.8242
26.7557
26.6878
26.6203
26.5529
26.4856
26.418
26.3501
26.2817
26.2127
26.1431
26.0727
26.0017
25.93
25.8577
25.7848
25.7114
25.6377
25.5636
25.4893
25.415
25.3406
25.2664
25.1925
25.119
25.0462
24.9743
24.9034
24.8338
24.7658
24.6994
24.6349
24.5722
24.5113
24.4523
24.3953
24.3403
24.2878
24.238
24.1914
24.1483
24.1091
24.074
24.0429
24.0154
23.9911
23.9691
23.9487
23.9289
23.9087
23.8869
23.8623
23.8332
23.7979
23.7544
23.7005
23.6341
23.5529
23.4547
23.3376
23.2
23.0405
22.8584
22.6533
22.4251
22.1741
21.9011
21.6075
21.2946
20.964
20.6171
20.2553
19.8802
19.4934
19.0965
18.6911
18.2788
17.8612
17.4393
17.0141
16.5862
16.156
15.7236
15.2889
14.8517
14.412
13.9695
13.5245
13.0771
12.6278
12.1773
11.7265
11.2764