/*--------------------------------*- C++ -*----------------------------------*\
  =========                 |
  \\      /  F ield         | OpenFOAM: The Open Source CFD Toolbox
   \\    /   O peration     | Website:  https://openfoam.org
    \\  /    A nd           | Version:  9
     \\/     M anipulation  |
\*---------------------------------------------------------------------------*/
FoamFile
{
    format      ascii;
    class       surfaceScalarField;
    location    "0.19";
    object      phi;
}
// * * * * * * * * * * * * * * * * * * * * * * * * * * * * * * * * * * * * * //

dimensions      [0 3 -1 0 0 0 0];

internalField   nonuniform List<scalar> 
24170
(
3.03239e-07
1.56019e-08
2.65364e-07
3.78747e-08
2.36686e-07
2.86785e-08
2.14251e-07
2.24347e-08
1.97914e-07
1.63369e-08
1.86566e-07
1.1348e-08
1.78235e-07
8.33108e-09
1.71586e-07
6.64857e-09
1.66002e-07
5.58446e-09
1.61243e-07
4.75934e-09
1.57234e-07
4.00873e-09
1.54009e-07
3.22499e-09
1.5169e-07
2.31894e-09
1.50568e-07
1.12217e-09
1.51405e-07
-8.37076e-10
1.5609e-07
-4.68526e-09
1.69698e-07
-1.3608e-08
-3.70413e-08
2.06739e-07
3.46816e-07
1.0511e-08
3.37821e-07
4.68692e-08
3.23732e-07
4.27682e-08
3.10253e-07
3.59131e-08
2.98304e-07
2.82863e-08
2.88289e-07
2.13626e-08
2.80126e-07
1.6494e-08
2.73447e-07
1.33283e-08
2.67923e-07
1.11082e-08
2.6336e-07
9.32272e-09
2.59694e-07
7.67424e-09
2.56994e-07
5.92491e-09
2.55492e-07
3.8207e-09
2.5565e-07
9.64781e-10
2.58541e-07
-3.7282e-09
2.65914e-07
-1.20583e-08
2.85192e-07
-3.28858e-08
-6.56922e-08
3.13843e-07
3.65347e-07
1.14159e-08
3.67371e-07
4.48446e-08
3.6315e-07
4.699e-08
3.56565e-07
4.24981e-08
3.4898e-07
3.5871e-08
3.41435e-07
2.89079e-08
3.34592e-07
2.33369e-08
3.28639e-07
1.92812e-08
3.2354e-07
1.62068e-08
3.19222e-07
1.36412e-08
3.15656e-07
1.12399e-08
3.12895e-07
8.68624e-09
3.11115e-07
5.60087e-09
3.10647e-07
1.43226e-09
3.12061e-07
-5.14212e-09
3.15978e-07
-1.59748e-08
3.20788e-07
-3.76967e-08
-7.181e-08
3.26906e-07
3.92074e-07
1.18803e-08
3.95679e-07
4.12399e-08
3.95466e-07
4.72028e-08
3.92636e-07
4.53284e-08
3.88131e-07
4.03757e-08
3.82828e-07
3.42114e-08
3.77481e-07
2.86834e-08
3.72496e-07
2.42666e-08
3.68018e-07
2.06849e-08
3.64083e-07
1.75762e-08
3.6071e-07
1.46122e-08
3.57948e-07
1.14484e-08
3.55906e-07
7.64367e-09
3.54746e-07
2.59153e-09
3.54551e-07
-4.94682e-09
3.55059e-07
-1.64831e-08
3.53614e-07
-3.62513e-08
-6.57293e-08
3.47533e-07
4.21142e-07
1.14508e-08
4.24872e-07
3.75097e-08
4.26507e-07
4.55678e-08
4.25952e-07
4.58843e-08
4.23677e-07
4.26498e-08
4.20266e-07
3.76224e-08
4.16367e-07
3.25825e-08
4.12431e-07
2.82028e-08
4.08692e-07
2.44237e-08
4.0526e-07
2.10087e-08
4.02191e-07
1.76808e-08
3.99531e-07
1.41087e-08
3.97323e-07
9.85153e-09
3.95581e-07
4.33356e-09
3.94075e-07
-3.44023e-09
3.92109e-07
-1.45174e-08
3.87163e-07
-3.13058e-08
-5.41163e-08
3.7555e-07
4.51732e-07
1.06272e-08
4.55442e-07
3.37996e-08
4.58077e-07
4.29332e-08
4.59006e-07
4.49559e-08
4.58373e-07
4.32824e-08
4.56512e-07
3.94836e-08
4.5392e-07
3.51742e-08
4.51014e-07
3.11085e-08
4.48053e-07
2.73851e-08
4.45179e-07
2.38825e-08
4.4247e-07
2.039e-08
4.39959e-07
1.662e-08
4.37631e-07
1.21795e-08
4.35379e-07
6.5848e-09
4.328e-07
-8.60871e-10
4.29046e-07
-1.0763e-08
4.21975e-07
-2.42353e-08
-4.06076e-08
4.08466e-07
4.84232e-07
9.66692e-09
4.87869e-07
3.0163e-08
4.91052e-07
3.97504e-08
4.92962e-07
4.30453e-08
4.93536e-07
4.27082e-08
4.92921e-07
4.00991e-08
4.91468e-07
3.66275e-08
4.89522e-07
3.30538e-08
4.87326e-07
2.9581e-08
4.85028e-07
2.61814e-08
4.82703e-07
2.27146e-08
4.80368e-07
1.89553e-08
4.77958e-07
1.45897e-08
4.75283e-07
9.25951e-09
4.71869e-07
2.55273e-09
4.66881e-07
-5.77467e-09
4.58636e-07
-1.599e-08
-2.69926e-08
4.45021e-07
5.19003e-07
8.62233e-09
5.2249e-07
2.66756e-08
5.25937e-07
3.63036e-08
5.28486e-07
4.04964e-08
5.29939e-07
4.12549e-08
5.3031e-07
3.97282e-08
5.29823e-07
3.71147e-08
5.28742e-07
3.41352e-08
5.27268e-07
3.10542e-08
5.25534e-07
2.79162e-08
5.23601e-07
2.46476e-08
5.21462e-07
2.10935e-08
5.19017e-07
1.7035e-08
5.1603e-07
1.22468e-08
5.12032e-07
6.55034e-09
5.06292e-07
-3.43942e-11
4.97586e-07
-7.28393e-09
-1.41099e-08
4.84703e-07
5.56265e-07
7.49105e-09
5.59552e-07
2.33885e-08
5.6308e-07
3.27753e-08
5.66026e-07
3.75505e-08
5.6811e-07
3.9171e-08
5.69251e-07
3.85873e-08
5.69568e-07
3.67975e-08
5.69245e-07
3.44588e-08
5.68433e-07
3.18653e-08
5.67235e-07
2.91143e-08
5.65692e-07
2.61914e-08
5.63773e-07
2.30124e-08
5.61355e-07
1.9453e-08
5.58191e-07
1.54108e-08
5.53866e-07
1.08747e-08
5.47796e-07
6.03559e-09
5.39168e-07
1.34485e-09
-2.33888e-09
5.27397e-07
5.96199e-07
6.27008e-09
5.99274e-07
2.03126e-08
6.02764e-07
2.92858e-08
6.05929e-07
3.43852e-08
6.08447e-07
3.66531e-08
6.10173e-07
3.68615e-08
6.11142e-07
3.58285e-08
6.11464e-07
3.4137e-08
6.1124e-07
3.20889e-08
6.10537e-07
2.98173e-08
6.09371e-07
2.73577e-08
6.07694e-07
2.46896e-08
6.05374e-07
2.17724e-08
6.02183e-07
1.86018e-08
5.97785e-07
1.52732e-08
5.91755e-07
1.20659e-08
5.83617e-07
9.48211e-09
8.11446e-09
5.73164e-07
6.39024e-07
4.92723e-09
6.41887e-07
1.74494e-08
6.45251e-07
2.5922e-08
6.48484e-07
3.11525e-08
6.51254e-07
3.38831e-08
6.5338e-07
3.47355e-08
6.54833e-07
3.43758e-08
6.55658e-07
3.33114e-08
6.55909e-07
3.18376e-08
6.55617e-07
3.01101e-08
6.54771e-07
2.8203e-08
6.53313e-07
2.61477e-08
6.51117e-07
2.39683e-08
6.47993e-07
2.17258e-08
6.437e-07
1.95667e-08
6.3798e-07
1.77861e-08
6.30621e-07
1.68412e-08
1.70227e-08
6.21712e-07
5.75362e-07
3.64852e-09
5.77657e-07
1.51541e-08
5.8039e-07
2.31893e-08
5.83127e-07
2.84152e-08
5.85596e-07
3.14145e-08
5.87626e-07
3.27053e-08
5.89153e-07
3.28486e-08
5.90173e-07
3.22916e-08
5.90695e-07
3.13154e-08
5.90719e-07
3.00867e-08
5.90218e-07
2.87033e-08
5.89137e-07
2.72293e-08
5.87379e-07
2.57261e-08
5.84819e-07
2.42855e-08
5.81324e-07
2.30621e-08
5.76802e-07
2.23083e-08
5.71254e-07
2.23887e-08
2.36878e-08
5.64589e-07
7.01263e-07
2.20104e-09
7.03787e-07
1.263e-08
7.06749e-07
2.02271e-08
7.09825e-07
2.53398e-08
7.12725e-07
2.85145e-08
7.15244e-07
3.01863e-08
7.17277e-07
3.08154e-08
7.18783e-07
3.07853e-08
7.19743e-07
3.03555e-08
7.20135e-07
2.96949e-08
7.19921e-07
2.89177e-08
7.19039e-07
2.81113e-08
7.17404e-07
2.73609e-08
7.14919e-07
2.677e-08
7.11502e-07
2.64794e-08
7.07126e-07
2.66848e-08
7.01859e-07
2.7655e-08
2.9932e-08
6.95615e-07
8.54638e-07
6.47648e-10
8.57407e-07
9.86065e-09
8.60611e-07
1.70237e-08
8.64049e-07
2.19018e-08
8.67438e-07
2.51254e-08
8.70541e-07
2.70835e-08
8.73208e-07
2.81479e-08
8.75358e-07
2.86357e-08
8.76937e-07
2.87762e-08
8.77901e-07
2.87307e-08
8.78201e-07
2.86183e-08
8.77775e-07
2.85369e-08
8.76557e-07
2.85796e-08
8.7448e-07
2.88465e-08
8.71506e-07
2.94533e-08
8.67656e-07
3.05353e-08
8.63012e-07
3.22988e-08
3.55985e-08
8.57345e-07
1.04148e-06
-9.11921e-10
1.04451e-06
6.83499e-09
1.04795e-06
1.3581e-08
1.05173e-06
1.81224e-08
1.05559e-06
2.12648e-08
1.05928e-06
2.33925e-08
1.06262e-06
2.48126e-08
1.06547e-06
2.57792e-08
1.06776e-06
2.64845e-08
1.06942e-06
2.7071e-08
1.07039e-06
2.76493e-08
1.07062e-06
2.8312e-08
1.07005e-06
2.9144e-08
1.06867e-06
3.02269e-08
1.06649e-06
3.16407e-08
1.06356e-06
3.34613e-08
1.05999e-06
3.58701e-08
4.01258e-08
1.05546e-06
1.26913e-06
-2.3647e-09
1.27237e-06
3.59542e-09
1.27607e-06
9.88157e-09
1.28021e-06
1.39863e-08
1.28455e-06
1.69172e-08
1.28886e-06
1.90828e-08
1.29293e-06
2.07512e-08
1.29658e-06
2.21216e-08
1.29972e-06
2.33442e-08
1.30226e-06
2.45318e-08
1.30414e-06
2.5773e-08
1.30531e-06
2.71402e-08
1.30576e-06
2.86956e-08
1.30549e-06
3.04913e-08
1.30457e-06
3.25674e-08
1.30308e-06
3.49486e-08
1.30113e-06
3.78212e-08
4.28274e-08
1.29843e-06
1.54658e-06
-3.62431e-09
1.54993e-06
2.42637e-10
1.55394e-06
5.87436e-09
1.55853e-06
9.39245e-09
1.56349e-06
1.19607e-08
1.56855e-06
1.40163e-08
1.57351e-06
1.57996e-08
1.57817e-06
1.7461e-08
1.58241e-06
1.91052e-08
1.58613e-06
2.08065e-08
1.58928e-06
2.26194e-08
1.59184e-06
2.45854e-08
1.5938e-06
2.67352e-08
1.5952e-06
2.90884e-08
1.59612e-06
3.16492e-08
1.59666e-06
3.44074e-08
1.59692e-06
3.75614e-08
4.29667e-08
1.59678e-06
1.88481e-06
-4.66923e-09
1.88815e-06
-3.1021e-09
1.8926e-06
1.42535e-09
1.89792e-06
4.07451e-09
1.90381e-06
6.06697e-09
1.91e-06
7.83471e-09
1.91622e-06
9.57264e-09
1.9223e-06
1.13813e-08
1.9281e-06
1.33112e-08
1.93351e-06
1.53898e-08
1.9385e-06
1.76306e-08
1.94305e-06
2.00375e-08
1.94718e-06
2.26078e-08
1.95093e-06
2.53315e-08
1.9544e-06
2.8187e-08
1.95766e-06
3.11437e-08
1.96083e-06
3.43959e-08
3.97495e-08
1.96404e-06
2.29737e-06
-5.70066e-09
2.30058e-06
-6.31518e-09
2.30581e-06
-3.81056e-09
2.31245e-06
-2.56287e-09
2.31999e-06
-1.47004e-09
2.32803e-06
-2.10336e-10
2.33629e-06
1.32061e-09
2.34453e-06
3.13712e-09
2.35262e-06
5.21911e-09
2.36048e-06
7.53491e-09
2.36806e-06
1.00513e-08
2.37536e-06
1.2734e-08
2.38242e-06
1.55487e-08
2.38929e-06
1.84599e-08
2.39605e-06
2.14297e-08
2.40278e-06
2.44157e-08
2.4096e-06
2.75732e-08
3.23858e-08
2.41696e-06
1.68172e-06
-6.35303e-09
1.6839e-06
-8.49339e-09
1.68807e-06
-7.98369e-09
1.69349e-06
-7.98316e-09
1.69965e-06
-7.62525e-09
1.70619e-06
-6.75162e-09
1.71288e-06
-5.36848e-09
1.71956e-06
-3.54682e-09
1.72616e-06
-1.37234e-09
1.73261e-06
1.07694e-09
1.73893e-06
3.73583e-09
1.74512e-06
6.54764e-09
1.7512e-06
9.46289e-09
1.75723e-06
1.24353e-08
1.76324e-06
1.54201e-08
1.76928e-06
1.83715e-08
1.77546e-06
2.13968e-08
2.56409e-08
1.7822e-06
1.46386e-06
-6.75122e-09
1.46598e-06
-1.06159e-08
1.47015e-06
-1.21525e-08
1.47548e-06
-1.33147e-08
1.48142e-06
-1.35683e-08
1.48762e-06
-1.2954e-08
1.49386e-06
-1.16049e-08
1.50001e-06
-9.69479e-09
1.50602e-06
-7.382e-09
1.51188e-06
-4.78615e-09
1.51761e-06
-1.99765e-09
1.52325e-06
9.12897e-10
1.52882e-06
3.89024e-09
1.53437e-06
6.88574e-09
1.53994e-06
9.85572e-09
1.54555e-06
1.27555e-08
1.5513e-06
1.56493e-08
1.93767e-08
1.55756e-06
1.2742e-06
-6.9349e-09
1.27641e-06
-1.28285e-08
1.28065e-06
-1.63914e-08
1.28587e-06
-1.85406e-08
1.29152e-06
-1.92153e-08
1.29724e-06
-1.86694e-08
1.30281e-06
-1.7181e-08
1.30817e-06
-1.50498e-08
1.3133e-06
-1.25143e-08
1.31824e-06
-9.73094e-09
1.32305e-06
-6.80528e-09
1.32777e-06
-3.80941e-09
1.33246e-06
-7.97572e-10
1.33716e-06
2.18857e-09
1.3419e-06
5.11261e-09
1.34672e-06
7.93864e-09
1.35167e-06
1.07014e-08
1.39819e-08
1.35706e-06
1.10901e-06
-6.85094e-09
1.11137e-06
-1.51923e-08
1.11568e-06
-2.06939e-08
1.12071e-06
-2.35745e-08
1.12592e-06
-2.44222e-08
1.13094e-06
-2.36974e-08
1.13562e-06
-2.18547e-08
1.13992e-06
-1.93522e-08
1.14391e-06
-1.65055e-08
1.14768e-06
-1.34957e-08
1.15131e-06
-1.04341e-08
1.15488e-06
-7.38273e-09
1.15846e-06
-4.37961e-09
1.1621e-06
-1.45128e-09
1.16584e-06
1.37801e-09
1.16969e-06
4.08419e-09
1.1737e-06
6.69013e-09
9.58459e-09
1.1781e-06
9.65088e-07
-6.4172e-09
9.6763e-07
-1.77344e-08
9.71925e-07
-2.49887e-08
9.76615e-07
-2.82647e-08
9.81169e-07
-2.89759e-08
9.8524e-07
-2.77689e-08
9.88723e-07
-2.53377e-08
9.917e-07
-2.23291e-08
9.94311e-07
-1.91162e-08
9.96695e-07
-1.58799e-08
9.98977e-07
-1.27162e-08
1.00126e-06
-9.66903e-09
1.00363e-06
-6.74872e-09
1.00613e-06
-3.9539e-09
1.0088e-06
-1.28984e-09
1.01166e-06
1.23105e-09
1.01472e-06
3.6297e-09
6.17602e-09
1.01812e-06
8.39578e-07
-5.45981e-09
8.42388e-07
-2.05444e-08
8.46554e-07
-2.91548e-08
8.50653e-07
-3.23638e-08
8.54224e-07
-3.25467e-08
8.56965e-07
-3.05103e-08
8.58907e-07
-2.72796e-08
8.60271e-07
-2.36934e-08
8.6129e-07
-2.01347e-08
8.62155e-07
-1.67446e-08
8.63014e-07
-1.35755e-08
8.63979e-07
-1.06342e-08
8.65131e-07
-7.90115e-09
8.6652e-07
-5.34217e-09
8.68164e-07
-2.93377e-09
8.70072e-07
-6.77539e-10
8.72254e-07
1.44815e-09
3.65226e-09
8.74778e-07
7.29691e-07
-3.4223e-09
7.33122e-07
-2.39756e-08
7.36996e-07
-3.30287e-08
7.40092e-07
-3.546e-08
7.42162e-07
-3.46166e-08
7.43061e-07
-3.14087e-08
7.43051e-07
-2.72696e-08
7.42524e-07
-2.31667e-08
7.41795e-07
-1.94059e-08
7.41083e-07
-1.6032e-08
7.40534e-07
-1.30268e-08
7.40245e-07
-1.03448e-08
7.40272e-07
-7.92907e-09
7.40653e-07
-5.72276e-09
7.4139e-07
-3.67096e-09
7.42476e-07
-1.76369e-09
7.43909e-07
1.52088e-11
1.85555e-09
7.45706e-07
6.32901e-07
6.82834e-10
6.37614e-07
-2.86882e-08
6.40706e-07
-3.61209e-08
6.42059e-07
-3.68124e-08
6.41819e-07
-3.43773e-08
6.40197e-07
-2.97865e-08
6.37787e-07
-2.48595e-08
6.35137e-07
-2.05171e-08
6.32594e-07
-1.68628e-08
6.3035e-07
-1.37876e-08
6.28504e-07
-1.11812e-08
6.27105e-07
-8.94563e-09
6.2617e-07
-6.99343e-09
6.25704e-07
-5.2572e-09
6.25691e-07
-3.65799e-09
6.26106e-07
-2.17844e-09
6.26943e-07
-8.21813e-10
5.99426e-10
6.28199e-07
5.49421e-07
5.80856e-09
5.54791e-07
-3.40585e-08
5.55006e-07
-3.6336e-08
5.52884e-07
-3.46899e-08
5.48941e-07
-3.04349e-08
5.4389e-07
-2.47346e-08
5.38622e-07
-1.95915e-08
5.3371e-07
-1.56054e-08
5.29403e-07
-1.25558e-08
5.25773e-07
-1.01578e-08
5.22816e-07
-8.22355e-09
5.20496e-07
-6.62596e-09
5.18773e-07
-5.271e-09
5.17625e-07
-4.10888e-09
5.17008e-07
-3.04077e-09
5.16886e-07
-2.05642e-09
5.17248e-07
-1.18412e-09
-2.92964e-10
5.18141e-07
4.88107e-07
4.61998e-10
4.84722e-07
-3.06731e-08
4.75448e-07
-2.70625e-08
4.65171e-07
-2.44123e-08
4.54761e-07
-2.00247e-08
4.45008e-07
-1.49819e-08
4.36509e-07
-1.10925e-08
4.2939e-07
-8.48629e-09
4.23532e-07
-6.69856e-09
4.1876e-07
-5.38585e-09
4.1491e-07
-4.37325e-09
4.1185e-07
-3.56534e-09
4.0948e-07
-2.90138e-09
4.07726e-07
-2.35447e-09
4.06562e-07
-1.87707e-09
4.05936e-07
-1.43016e-09
4.05811e-07
-1.05916e-09
-8.14378e-10
4.06332e-07
4.2073e-07
3.90057e-07
3.62994e-07
3.38582e-07
3.18557e-07
3.03575e-07
2.92483e-07
2.83996e-07
2.77298e-07
2.71912e-07
2.67539e-07
2.63973e-07
2.61072e-07
2.58718e-07
2.5684e-07
2.5541e-07
2.54351e-07
2.53537e-07
4.71986e-10
-4.71968e-10
1.75142e-08
-1.70422e-08
4.4597e-08
-2.70827e-08
7.58982e-08
-3.13012e-08
1.08076e-07
-3.21776e-08
1.38934e-07
-3.08585e-08
1.67142e-07
-2.82082e-08
1.91907e-07
-2.47643e-08
2.12768e-07
-2.08612e-08
2.29473e-07
-1.67048e-08
2.41888e-07
-1.24153e-08
2.49934e-07
-8.04547e-09
2.53566e-07
-3.63215e-09
2.5286e-07
7.06167e-10
2.48076e-07
4.78359e-09
2.39593e-07
8.48289e-09
2.27886e-07
1.17075e-08
2.13455e-07
1.4431e-08
1.96785e-07
1.66698e-08
1.78239e-07
1.85457e-08
1.5813e-07
2.01088e-08
1.36653e-07
2.14777e-08
1.13688e-07
2.29649e-08
8.89688e-08
2.47191e-08
6.20272e-08
2.69415e-08
3.21508e-08
2.98765e-08
-9.46605e-10
3.30974e-08
-3.69846e-08
3.6038e-08
-7.69304e-08
3.99458e-08
-1.21877e-07
4.49468e-08
-1.72102e-07
5.02252e-08
-2.26955e-07
5.48529e-08
-2.84719e-07
5.77641e-08
-3.46423e-07
6.17039e-08
-4.14531e-07
6.81082e-08
-4.88483e-07
7.39516e-08
-5.64699e-07
7.62155e-08
-6.50079e-07
8.538e-08
-7.3963e-07
8.95513e-08
-8.21649e-07
8.20196e-08
-9.04867e-07
8.32175e-08
-9.89201e-07
8.43339e-08
-1.0722e-06
8.29943e-08
-1.15271e-06
8.05112e-08
-1.23005e-06
7.73391e-08
-1.30378e-06
7.37342e-08
-1.37368e-06
6.98956e-08
-1.43964e-06
6.59668e-08
-1.50169e-06
6.20497e-08
-1.55991e-06
5.82139e-08
-1.61441e-06
5.45034e-08
-1.66535e-06
5.09423e-08
-1.71289e-06
4.75398e-08
-1.75718e-06
4.42941e-08
-1.79838e-06
4.11952e-08
-1.83661e-06
3.82283e-08
-1.87198e-06
3.53752e-08
-1.9046e-06
3.26162e-08
-1.93453e-06
2.99308e-08
-1.96183e-06
2.7299e-08
-1.98653e-06
2.47014e-08
-2.00865e-06
2.212e-08
-2.02819e-06
1.95381e-08
-2.04513e-06
1.69405e-08
-2.05944e-06
1.43131e-08
-2.07109e-06
1.16442e-08
-2.08001e-06
8.92482e-09
-2.08616e-06
6.15049e-09
-2.08947e-06
3.31253e-09
-2.08989e-06
4.14924e-10
-2.08741e-06
-2.47515e-09
-2.08213e-06
-5.2858e-09
-2.07411e-06
-8.01675e-09
-2.0634e-06
-1.07119e-08
-2.05001e-06
-1.33863e-08
-2.03396e-06
-1.60496e-08
-2.01525e-06
-1.87092e-08
-1.99389e-06
-2.1367e-08
-1.96986e-06
-2.40249e-08
-1.94318e-06
-2.66861e-08
-1.91382e-06
-2.93592e-08
-1.88176e-06
-3.20554e-08
-1.84698e-06
-3.47804e-08
-1.80945e-06
-3.75355e-08
-1.76911e-06
-4.03339e-08
-1.72588e-06
-4.32271e-08
-1.67965e-06
-4.62306e-08
-1.63037e-06
-4.92887e-08
-1.57793e-06
-5.24338e-08
-1.52236e-06
-5.55672e-08
-1.46352e-06
-5.88472e-08
-1.40124e-06
-6.22801e-08
-1.33538e-06
-6.58546e-08
-1.26582e-06
-6.95663e-08
-1.19241e-06
-7.34106e-08
-1.11502e-06
-7.7383e-08
-1.03355e-06
-8.14766e-08
-9.47868e-07
-8.56779e-08
-8.57906e-07
-8.99617e-08
-7.63622e-07
-9.42845e-08
-6.65044e-07
-9.85777e-08
-5.62305e-07
-1.02739e-07
-4.55684e-07
-1.0662e-07
-3.45668e-07
-1.10016e-07
-2.33025e-07
-1.12643e-07
-1.189e-07
-1.14125e-07
-4.9185e-09
-1.13982e-07
1.06698e-07
-1.11616e-07
2.13131e-07
-1.06433e-07
3.11057e-07
-9.79261e-08
3.95533e-07
-8.44757e-08
4.59357e-07
-6.3824e-08
4.9886e-07
-3.9503e-08
5.1919e-07
-2.03294e-08
5.27362e-07
-8.17216e-09
5.26827e-07
5.34988e-10
5.19617e-07
7.21022e-09
5.07197e-07
1.24204e-08
4.90254e-07
1.69433e-08
4.65183e-07
2.50705e-08
4.30082e-07
3.51015e-08
4.0788e-07
2.22019e-08
3.84982e-07
2.28977e-08
3.4101e-07
4.39722e-08
3.01945e-07
3.9065e-08
2.68301e-07
3.36436e-08
2.21433e-07
4.68684e-08
1.65288e-07
5.61456e-08
1.17986e-07
4.73019e-08
7.13207e-08
4.66651e-08
1.4759e-08
5.65617e-08
-3.38236e-08
4.85826e-08
-8.34167e-08
4.9593e-08
-1.29286e-07
4.58693e-08
-1.68797e-07
3.95109e-08
-2.08404e-07
3.96073e-08
-2.44159e-07
3.57546e-08
-2.78796e-07
3.46371e-08
-3.12586e-07
3.379e-08
-3.42985e-07
3.03986e-08
-3.71097e-07
2.81114e-08
-3.96935e-07
2.5838e-08
-4.20228e-07
2.32935e-08
-4.40982e-07
2.07539e-08
-4.59042e-07
1.80597e-08
-4.74264e-07
1.52224e-08
-4.8653e-07
1.22659e-08
-4.9584e-07
9.31002e-09
-5.02082e-07
6.24227e-09
-5.04992e-07
2.90913e-09
-5.04476e-07
-5.16093e-10
-5.00507e-07
-3.9689e-09
-4.93046e-07
-7.46063e-09
-4.8207e-07
-1.09758e-08
-4.67545e-07
-1.45252e-08
-4.49278e-07
-1.82665e-08
-4.27006e-07
-2.22728e-08
-4.0075e-07
-2.6256e-08
-3.70875e-07
-2.98745e-08
-3.3768e-07
-3.31946e-08
-3.0117e-07
-3.65104e-08
-2.61341e-07
-3.98295e-08
-2.18441e-07
-4.28992e-08
-1.72876e-07
-4.55651e-08
-1.25261e-07
-4.76155e-08
-7.58485e-08
-4.94121e-08
-2.52128e-08
-5.06356e-08
2.60328e-08
-5.12456e-08
7.73637e-08
-5.13309e-08
1.28191e-07
-5.08273e-08
1.77882e-07
-4.96906e-08
2.25832e-07
-4.79503e-08
2.71481e-07
-4.56488e-08
3.14334e-07
-4.28531e-08
3.53963e-07
-3.96292e-08
3.89963e-07
-3.60001e-08
4.21769e-07
-3.18059e-08
4.48275e-07
-2.65065e-08
4.65392e-07
-1.7117e-08
1.88304e-09
4.63509e-07
1.83858e-08
-1.88578e-08
4.81781e-08
-4.68345e-08
7.84125e-08
-5.73172e-08
1.05513e-07
-5.84018e-08
1.29415e-07
-5.60791e-08
1.5033e-07
-5.17741e-08
1.68316e-07
-4.61939e-08
1.83353e-07
-3.9801e-08
1.95391e-07
-3.28993e-08
2.04378e-07
-2.56918e-08
2.10275e-07
-1.83129e-08
2.13057e-07
-1.08267e-08
2.12773e-07
-3.3483e-09
2.09451e-07
4.02776e-09
2.0307e-07
1.11645e-08
1.93639e-07
1.79145e-08
1.8112e-07
2.42267e-08
1.65467e-07
3.00838e-08
1.46636e-07
3.55004e-08
1.2462e-07
4.05618e-08
9.93209e-08
4.5408e-08
7.05659e-08
5.02327e-08
3.83548e-08
5.51761e-08
2.60483e-09
6.04691e-08
-3.69631e-08
6.65094e-08
-8.08408e-08
7.37543e-08
-1.30039e-07
8.22955e-08
-1.85095e-07
9.10938e-08
-2.44852e-07
9.97034e-08
-3.0781e-07
1.07905e-07
-3.73834e-07
1.16249e-07
-4.44179e-07
1.25198e-07
-5.19957e-07
1.33542e-07
-5.9939e-07
1.41137e-07
-6.80497e-07
1.49215e-07
-7.62496e-07
1.5595e-07
-8.46052e-07
1.59772e-07
-9.23501e-07
1.62828e-07
-9.97359e-07
1.63409e-07
-1.07418e-06
1.58836e-07
-1.14537e-06
1.54408e-07
-1.21084e-06
1.49813e-07
-1.27209e-06
1.44242e-07
-1.3295e-06
1.37921e-07
-1.38334e-06
1.31176e-07
-1.43385e-06
1.24242e-07
-1.48125e-06
1.17303e-07
-1.52578e-06
1.1049e-07
-1.56762e-06
1.03893e-07
-1.60697e-06
9.75631e-08
-1.64399e-06
9.1524e-08
-1.67883e-06
8.57781e-08
-1.7116e-06
8.0313e-08
-1.74241e-06
7.5106e-08
-1.77134e-06
7.01285e-08
-1.79846e-06
6.53477e-08
-1.82382e-06
6.07298e-08
-1.84744e-06
5.62407e-08
-1.86936e-06
5.18474e-08
-1.88958e-06
4.75183e-08
-1.9081e-06
4.32244e-08
-1.92492e-06
3.89388e-08
-1.94002e-06
3.4638e-08
-1.95338e-06
3.03014e-08
-1.96498e-06
2.59122e-08
-1.97479e-06
2.14578e-08
-1.9828e-06
1.69309e-08
-1.98898e-06
1.23287e-08
-1.99332e-06
7.65585e-09
-1.99584e-06
2.93092e-09
-1.99649e-06
-1.82354e-09
-1.99516e-06
-6.61078e-09
-1.99173e-06
-1.14537e-08
-1.98608e-06
-1.63609e-08
-1.97813e-06
-2.13297e-08
-1.96783e-06
-2.6354e-08
-1.95511e-06
-3.14272e-08
-1.93994e-06
-3.65423e-08
-1.92227e-06
-4.16918e-08
-1.90209e-06
-4.68701e-08
-1.87937e-06
-5.20735e-08
-1.85412e-06
-5.73027e-08
-1.82636e-06
-6.25467e-08
-1.79609e-06
-6.78067e-08
-1.76334e-06
-7.30821e-08
-1.72816e-06
-7.84011e-08
-1.6906e-06
-8.37923e-08
-1.65063e-06
-8.92665e-08
-1.60819e-06
-9.48707e-08
-1.56314e-06
-1.00618e-07
-1.51545e-06
-1.06532e-07
-1.46513e-06
-1.12608e-07
-1.41215e-06
-1.18827e-07
-1.35656e-06
-1.2516e-07
-1.29839e-06
-1.31577e-07
-1.23773e-06
-1.38047e-07
-1.17468e-06
-1.4453e-07
-1.10938e-06
-1.50978e-07
-1.04202e-06
-1.57321e-07
-9.7284e-07
-1.63462e-07
-9.02151e-07
-1.69267e-07
-8.30331e-07
-1.74558e-07
-7.5785e-07
-1.79102e-07
-6.85266e-07
-1.826e-07
-6.1323e-07
-1.84678e-07
-5.42477e-07
-1.84878e-07
-4.73795e-07
-1.82663e-07
-4.07979e-07
-1.77432e-07
-3.45796e-07
-1.68616e-07
-2.87938e-07
-1.55784e-07
-2.33974e-07
-1.38439e-07
-1.8154e-07
-1.16258e-07
-1.29714e-07
-9.13288e-08
-8.18477e-08
-6.81959e-08
-4.08076e-08
-4.92123e-08
-6.47605e-09
-3.37965e-08
2.19029e-08
-2.11687e-08
4.49062e-08
-1.05829e-08
6.2801e-08
-9.51478e-10
7.80048e-08
9.86669e-09
8.99785e-08
2.31278e-08
9.38503e-08
1.83302e-08
9.30279e-08
2.37201e-08
9.22974e-08
4.47028e-08
8.58035e-08
4.5559e-08
7.32107e-08
4.62364e-08
5.56412e-08
6.44379e-08
3.42958e-08
7.74911e-08
9.71276e-09
7.1885e-08
-1.78122e-08
7.419e-08
-4.96487e-08
8.83982e-08
-8.30928e-08
8.20267e-08
-1.15547e-07
8.20477e-08
-1.5018e-07
8.05019e-08
-1.81839e-07
7.11696e-08
-2.13398e-07
7.11669e-08
-2.46182e-07
6.85377e-08
-2.77161e-07
6.56167e-08
-3.0585e-07
6.24784e-08
-3.34192e-07
5.87407e-08
-3.60805e-07
5.4724e-08
-3.85407e-07
5.04406e-08
-4.07907e-07
4.57937e-08
-4.28077e-07
4.09235e-08
-4.45762e-07
3.57442e-08
-4.60859e-07
3.03202e-08
-4.73238e-07
2.46446e-08
-4.82716e-07
1.87883e-08
-4.89161e-07
1.26869e-08
-4.9249e-07
6.23763e-09
-4.92541e-07
-4.64574e-10
-4.89177e-07
-7.33293e-09
-4.82291e-07
-1.43467e-08
-4.71787e-07
-2.14793e-08
-4.57562e-07
-2.87504e-08
-4.39528e-07
-3.63012e-08
-4.17662e-07
-4.41386e-08
-3.92021e-07
-5.18969e-08
-3.62696e-07
-5.91989e-08
-3.29773e-07
-6.61183e-08
-2.9336e-07
-7.29232e-08
-2.53641e-07
-7.95488e-08
-2.10905e-07
-8.56353e-08
-1.65555e-07
-9.09144e-08
-1.17872e-07
-9.52992e-08
-6.83011e-08
-9.89827e-08
-1.72949e-08
-1.01642e-07
3.45925e-08
-1.03133e-07
8.67358e-08
-1.03474e-07
1.38555e-07
-1.02646e-07
1.89461e-07
-1.00597e-07
2.38861e-07
-9.73506e-08
2.86201e-07
-9.29888e-08
3.30983e-07
-8.76354e-08
3.7277e-07
-8.14155e-08
4.11149e-07
-7.43792e-08
4.4563e-07
-6.6287e-08
4.75489e-07
-5.6365e-08
4.99585e-07
-4.1213e-08
-1.59295e-08
5.17397e-07
2.2395e-08
-4.12527e-08
5.28172e-08
-7.72566e-08
7.89552e-08
-8.34552e-08
9.96228e-08
-7.90694e-08
1.16184e-07
-7.26401e-08
1.29468e-07
-6.50581e-08
1.39937e-07
-5.66635e-08
1.47835e-07
-4.76989e-08
1.53272e-07
-3.83362e-08
1.56283e-07
-2.87025e-08
1.56827e-07
-1.88573e-08
1.54857e-07
-8.856e-09
1.50334e-07
1.17422e-09
1.43203e-07
1.11585e-08
1.33398e-07
2.09702e-08
1.20765e-07
3.05473e-08
1.05128e-07
3.98637e-08
8.63034e-08
4.89083e-08
6.40767e-08
5.77272e-08
3.82658e-08
6.63726e-08
8.73841e-09
7.49354e-08
-2.45983e-08
8.35694e-08
-6.18941e-08
9.24719e-08
-1.03341e-07
1.01916e-07
-1.49013e-07
1.12182e-07
-1.98759e-07
1.235e-07
-2.52292e-07
1.35828e-07
-3.09683e-07
1.48485e-07
-3.70623e-07
1.60644e-07
-4.34671e-07
1.71952e-07
-5.01263e-07
1.82842e-07
-5.6946e-07
1.93395e-07
-6.38606e-07
2.02688e-07
-7.07808e-07
2.10339e-07
-7.75145e-07
2.16552e-07
-8.39772e-07
2.20577e-07
-9.01883e-07
2.21884e-07
-9.59831e-07
2.20777e-07
-1.01388e-06
2.1746e-07
-1.0669e-06
2.11851e-07
-1.1175e-06
2.05012e-07
-1.16515e-06
1.97467e-07
-1.21022e-06
1.89305e-07
-1.25304e-06
1.80748e-07
-1.29388e-06
1.72009e-07
-1.3329e-06
1.63265e-07
-1.37025e-06
1.54651e-07
-1.40602e-06
1.46264e-07
-1.4403e-06
1.38166e-07
-1.47312e-06
1.3039e-07
-1.50455e-06
1.22947e-07
-1.5346e-06
1.15829e-07
-1.5633e-06
1.09017e-07
-1.59068e-06
1.02484e-07
-1.61675e-06
9.6195e-08
-1.64151e-06
9.01145e-08
-1.66499e-06
8.42049e-08
-1.68717e-06
7.84284e-08
-1.70808e-06
7.27487e-08
-1.72769e-06
6.71308e-08
-1.74601e-06
6.15421e-08
-1.76302e-06
5.59528e-08
-1.77872e-06
5.0336e-08
-1.79309e-06
4.46683e-08
-1.8061e-06
3.89304e-08
-1.81775e-06
3.31068e-08
-1.82801e-06
2.71869e-08
-1.83684e-06
2.11643e-08
-1.84423e-06
1.50371e-08
-1.8501e-06
8.80649e-09
-1.85439e-06
2.47037e-09
-1.85702e-06
-3.98689e-09
-1.85789e-06
-1.05795e-08
-1.85695e-06
-1.73065e-08
-1.85412e-06
-2.41598e-08
-1.84934e-06
-3.11283e-08
-1.84257e-06
-3.82002e-08
-1.83375e-06
-4.5363e-08
-1.82284e-06
-5.26033e-08
-1.8098e-06
-5.99093e-08
-1.7946e-06
-6.72699e-08
-1.77724e-06
-7.46671e-08
-1.75769e-06
-8.20929e-08
-1.73594e-06
-8.95531e-08
-1.71198e-06
-9.70436e-08
-1.6858e-06
-1.04587e-07
-1.65739e-06
-1.12204e-07
-1.62673e-06
-1.19923e-07
-1.59383e-06
-1.27773e-07
-1.55867e-06
-1.35775e-07
-1.52127e-06
-1.43934e-07
-1.48164e-06
-1.52234e-07
-1.43982e-06
-1.60645e-07
-1.39586e-06
-1.69124e-07
-1.34981e-06
-1.77621e-07
-1.30178e-06
-1.86082e-07
-1.25187e-06
-1.94442e-07
-1.20022e-06
-2.02624e-07
-1.14702e-06
-2.10525e-07
-1.09247e-06
-2.18014e-07
-1.03682e-06
-2.24917e-07
-9.8036e-07
-2.31013e-07
-9.23434e-07
-2.36027e-07
-8.66413e-07
-2.39621e-07
-8.09698e-07
-2.41393e-07
-7.53701e-07
-2.40875e-07
-6.98813e-07
-2.37551e-07
-6.45361e-07
-2.30885e-07
-5.93579e-07
-2.20398e-07
-5.43596e-07
-2.05768e-07
-4.95114e-07
-1.86922e-07
-4.47018e-07
-1.64353e-07
-3.98594e-07
-1.39753e-07
-3.51148e-07
-1.15642e-07
-3.06528e-07
-9.38319e-08
-2.65466e-07
-7.48582e-08
-2.28125e-07
-5.85097e-08
-1.94537e-07
-4.41711e-08
-1.64518e-07
-3.09704e-08
-1.36886e-07
-1.77654e-08
-1.09736e-07
-4.02229e-09
-9.55711e-08
4.16535e-09
-8.18004e-08
9.94938e-09
-6.07585e-08
2.36609e-08
-5.46265e-08
3.9427e-08
-5.61711e-08
4.77811e-08
-4.94109e-08
5.76777e-08
-4.59267e-08
7.40069e-08
-6.09976e-08
8.69559e-08
-8.05506e-08
9.3743e-08
-9.12401e-08
9.90877e-08
-1.10657e-07
1.01444e-07
-1.32957e-07
1.04347e-07
-1.57233e-07
1.04778e-07
-1.87126e-07
1.01062e-07
-2.13672e-07
9.77124e-08
-2.4045e-07
9.53165e-08
-2.67036e-07
9.22023e-08
-2.92526e-07
8.79686e-08
-3.17239e-07
8.34538e-08
-3.40884e-07
7.83681e-08
-3.63137e-07
7.26945e-08
-3.838e-07
6.64567e-08
-4.02614e-07
5.97368e-08
-4.19375e-07
5.2505e-08
-4.33852e-07
4.47973e-08
-4.4591e-07
3.67025e-08
-4.55276e-07
2.81545e-08
-4.61792e-07
1.92025e-08
-4.65334e-07
9.78051e-09
-4.65754e-07
-4.47752e-11
-4.62892e-07
-1.01951e-08
-4.5661e-07
-2.06285e-08
-4.46779e-07
-3.1311e-08
-4.33279e-07
-4.22498e-08
-4.16065e-07
-5.35153e-08
-3.95167e-07
-6.50364e-08
-3.70612e-07
-7.64518e-08
-3.42392e-07
-8.74193e-08
-3.10542e-07
-9.7968e-08
-2.75206e-07
-1.08259e-07
-2.36609e-07
-1.18146e-07
-1.95032e-07
-1.27213e-07
-1.50784e-07
-1.35162e-07
-1.04171e-07
-1.41913e-07
-5.56276e-08
-1.47526e-07
-5.58645e-09
-1.51683e-07
4.54422e-08
-1.54162e-07
9.68556e-08
-1.54887e-07
1.48039e-07
-1.5383e-07
1.98394e-07
-1.50951e-07
2.47333e-07
-1.4629e-07
2.94316e-07
-1.39972e-07
3.38858e-07
-1.32177e-07
3.80539e-07
-1.23096e-07
4.18987e-07
-1.12827e-07
4.53846e-07
-1.01147e-07
4.84733e-07
-8.72516e-08
5.11718e-07
-6.81977e-08
-4.03939e-08
5.36182e-07
2.03582e-08
-6.16109e-08
4.5187e-08
-1.02085e-07
6.44511e-08
-1.02719e-07
7.82134e-08
-9.28317e-08
8.81691e-08
-8.25958e-08
9.52362e-08
-7.21252e-08
9.98937e-08
-6.1321e-08
1.02384e-07
-5.01887e-08
1.02813e-07
-3.87659e-08
1.01187e-07
-2.70761e-08
9.74395e-08
-1.511e-08
9.1539e-08
-2.9554e-09
8.33824e-08
9.33082e-09
7.28783e-08
2.16625e-08
5.989e-08
3.39585e-08
4.42372e-08
4.62001e-08
2.5729e-08
5.83718e-08
4.16656e-09
7.04707e-08
-2.06138e-08
8.25075e-08
-4.87698e-08
9.45287e-08
-8.04605e-08
1.06626e-07
-1.15813e-07
1.18922e-07
-1.5492e-07
1.31579e-07
-1.97769e-07
1.44765e-07
-2.44177e-07
1.58591e-07
-2.93722e-07
1.73044e-07
-3.45768e-07
1.87874e-07
-3.99845e-07
2.02561e-07
-4.55697e-07
2.16496e-07
-5.13041e-07
2.29296e-07
-5.71046e-07
2.40847e-07
-6.28539e-07
2.50888e-07
-6.84798e-07
2.58946e-07
-7.39258e-07
2.64799e-07
-7.91095e-07
2.68389e-07
-8.40028e-07
2.6951e-07
-8.86311e-07
2.68166e-07
-9.30159e-07
2.64625e-07
-9.71845e-07
2.59146e-07
-1.01206e-06
2.52062e-07
-1.05094e-06
2.43891e-07
-1.08847e-06
2.34997e-07
-1.12477e-06
2.25615e-07
-1.15999e-06
2.1596e-07
-1.19419e-06
2.06212e-07
-1.22744e-06
1.96513e-07
-1.25976e-06
1.86971e-07
-1.29116e-06
1.77664e-07
-1.32163e-06
1.68641e-07
-1.35117e-06
1.59926e-07
-1.37975e-06
1.51528e-07
-1.40736e-06
1.43439e-07
-1.43398e-06
1.3564e-07
-1.4596e-06
1.28104e-07
-1.48421e-06
1.20802e-07
-1.50779e-06
1.13697e-07
-1.53034e-06
1.06754e-07
-1.55185e-06
9.99349e-08
-1.5723e-06
9.32045e-08
-1.5917e-06
8.65273e-08
-1.61003e-06
7.98696e-08
-1.62727e-06
7.32005e-08
-1.64343e-06
6.64911e-08
-1.65848e-06
5.97159e-08
-1.6724e-06
5.28524e-08
-1.68517e-06
4.58818e-08
-1.69678e-06
3.87884e-08
-1.70717e-06
3.15599e-08
-1.71632e-06
2.41865e-08
-1.72417e-06
1.66598e-08
-1.73067e-06
8.96899e-09
-1.73576e-06
1.0994e-09
-1.73938e-06
-6.95992e-09
-1.74147e-06
-1.521e-08
-1.74199e-06
-2.36436e-08
-1.74087e-06
-3.2248e-08
-1.73806e-06
-4.10089e-08
-1.73351e-06
-4.99106e-08
-1.72718e-06
-5.89366e-08
-1.71902e-06
-6.80704e-08
-1.70899e-06
-7.72962e-08
-1.6971e-06
-8.6557e-08
-1.68326e-06
-9.59332e-08
-1.66748e-06
-1.05333e-07
-1.64973e-06
-1.14792e-07
-1.63e-06
-1.24318e-07
-1.60828e-06
-1.33927e-07
-1.58457e-06
-1.43637e-07
-1.55887e-06
-1.53468e-07
-1.53121e-06
-1.63432e-07
-1.50162e-06
-1.73524e-07
-1.47014e-06
-1.83723e-07
-1.43679e-06
-1.93989e-07
-1.40165e-06
-2.04269e-07
-1.36477e-06
-2.145e-07
-1.32624e-06
-2.24612e-07
-1.28616e-06
-2.34521e-07
-1.24465e-06
-2.4413e-07
-1.20186e-06
-2.53317e-07
-1.15795e-06
-2.61928e-07
-1.11309e-06
-2.69772e-07
-1.06749e-06
-2.76611e-07
-1.02136e-06
-2.82159e-07
-9.74906e-07
-2.86076e-07
-9.28328e-07
-2.87971e-07
-8.81796e-07
-2.87407e-07
-8.35424e-07
-2.83923e-07
-7.89241e-07
-2.77068e-07
-7.43175e-07
-2.66463e-07
-6.97048e-07
-2.51894e-07
-6.50533e-07
-2.33437e-07
-6.03208e-07
-2.11678e-07
-5.5502e-07
-1.87941e-07
-5.0666e-07
-1.64002e-07
-4.59165e-07
-1.41327e-07
-4.13402e-07
-1.20621e-07
-3.69985e-07
-1.01927e-07
-3.29299e-07
-8.48569e-08
-2.91472e-07
-6.87981e-08
-2.56165e-07
-5.30724e-08