/*--------------------------------*- C++ -*----------------------------------*\
  =========                 |
  \\      /  F ield         | OpenFOAM: The Open Source CFD Toolbox
   \\    /   O peration     | Website:  https://openfoam.org
    \\  /    A nd           | Version:  9
     \\/     M anipulation  |
\*---------------------------------------------------------------------------*/
FoamFile
{
    format      ascii;
    class       volVectorField;
    location    "0.19";
    object      U;
}
// * * * * * * * * * * * * * * * * * * * * * * * * * * * * * * * * * * * * * //

dimensions      [0 1 -1 0 0 0 0];

internalField   nonuniform List<vector> 
12225
(
(0.927765 -0.322484 0)
(0.892344 -0.0987827 0)
(0.799564 -0.00502001 0)
(0.704928 0.0110517 0)
(0.641219 0.00903743 0)
(0.600423 0.00590527 0)
(0.571023 0.00418419 0)
(0.54791 0.00341002 0)
(0.528908 0.00301491 0)
(0.512823 0.00272451 0)
(0.499129 0.00243906 0)
(0.487808 0.00210032 0)
(0.479184 0.00166277 0)
(0.473888 0.00103281 0)
(0.472857 -0.000129143 0)
(0.480135 -0.00245752 0)
(0.51035 -0.0124668 0)
(0.638661 -0.0253617 0)
(1.02737 0.0747513 0)
(1.00499 0.0636372 0)
(0.969786 0.0344191 0)
(0.927183 0.0238221 0)
(0.888885 0.0185041 0)
(0.85717 0.0141679 0)
(0.830879 0.0111218 0)
(0.809275 0.00923103 0)
(0.791551 0.00799011 0)
(0.776891 0.00701958 0)
(0.76486 0.00609484 0)
(0.755488 0.00503039 0)
(0.749183 0.00362295 0)
(0.747022 0.00153053 0)
(0.750254 -0.00230184 0)
(0.764736 -0.00987934 0)
(0.792799 -0.0301148 0)
(0.921439 -0.0693397 0)
(1.00131 0.0255158 0)
(1.00146 0.0358526 0)
(0.999476 0.0319426 0)
(0.984057 0.0287028 0)
(0.963436 0.0245266 0)
(0.942408 0.0200203 0)
(0.922586 0.0164722 0)
(0.905018 0.0139861 0)
(0.889951 0.0121482 0)
(0.87714 0.0105885 0)
(0.866376 0.00903149 0)
(0.857698 0.00719903 0)
(0.851372 0.00472218 0)
(0.848182 0.00100061 0)
(0.848803 -0.00553451 0)
(0.856251 -0.0173886 0)
(0.870379 -0.0450702 0)
(0.905129 -0.0943405 0)
(0.998875 0.00716265 0)
(1.00279 0.0267029 0)
(1.00972 0.0319293 0)
(1.00559 0.0316193 0)
(0.995262 0.0286968 0)
(0.982353 0.0247569 0)
(0.968498 0.0212319 0)
(0.955143 0.0184735 0)
(0.94303 0.0162541 0)
(0.932311 0.014276 0)
(0.922991 0.0122565 0)
(0.915154 0.00986589 0)
(0.908973 0.00663336 0)
(0.904892 0.00181515 0)
(0.903008 -0.00623842 0)
(0.904244 -0.0199762 0)
(0.906586 -0.0464905 0)
(0.904763 -0.0894361 0)
(0.999814 0.00580973 0)
(1.00437 0.0250194 0)
(1.01325 0.031748 0)
(1.01453 0.0327757 0)
(1.01057 0.0311387 0)
(1.00352 0.0280937 0)
(0.994562 0.0249573 0)
(0.985038 0.022239 0)
(0.97582 0.0198792 0)
(0.967264 0.0176704 0)
(0.959519 0.0153552 0)
(0.952705 0.0125921 0)
(0.946921 0.0088722 0)
(0.942321 0.00343302 0)
(0.938608 -0.00518398 0)
(0.935497 -0.0188685 0)
(0.93017 -0.0420055 0)
(0.913898 -0.0763408 0)
(1.0003 0.00664634 0)
(1.00482 0.0233776 0)
(1.01385 0.0303993 0)
(1.01798 0.0325715 0)
(1.018 0.0321512 0)
(1.01506 0.0300903 0)
(1.00991 0.0275539 0)
(1.00362 0.0251121 0)
(0.997016 0.0228242 0)
(0.9905 0.0205676 0)
(0.984291 0.0181282 0)
(0.978515 0.015186 0)
(0.973199 0.011254 0)
(0.968282 0.00564432 0)
(0.963224 -0.00277319 0)
(0.957119 -0.0152662 0)
(0.947087 -0.0342232 0)
(0.925897 -0.0597829 0)
(1.00041 0.00649137 0)
(1.00471 0.0210609 0)
(1.01329 0.0283521 0)
(1.01883 0.0314892 0)
(1.02126 0.0321099 0)
(1.02113 0.0309969 0)
(1.01885 0.0291501 0)
(1.01518 0.0271325 0)
(1.01081 0.0250784 0)
(1.00612 0.0229341 0)
(1.00132 0.0205363 0)
(0.99653 0.0176106 0)
(0.991704 0.013737 0)
(0.986636 0.00836006 0)
(0.980678 0.000709656 0)
(0.972695 -0.00992853 0)
(0.960215 -0.0245576 0)
(0.938472 -0.0423162 0)
(1.00048 0.00583331 0)
(1.00444 0.0186543 0)
(1.0123 0.0260302 0)
(1.01839 0.0298503 0)
(1.02222 0.0313054 0)
(1.02395 0.0310443 0)
(1.02375 0.0298964 0)
(1.02213 0.0283816 0)
(1.01959 0.0266748 0)
(1.01647 0.0247756 0)
(1.01293 0.0225719 0)
(1.00904 0.01985 0)
(1.00472 0.0162845 0)
(0.999669 0.0114776 0)
(0.993241 0.0049855 0)
(0.984323 -0.00346727 0)
(0.971073 -0.014001 0)
(0.950785 -0.025395 0)
(1.00058 0.0050907 0)
(1.00417 0.0163989 0)
(1.01118 0.0236159 0)
(1.01731 0.0278535 0)
(1.02187 0.0299459 0)
(1.02478 0.0304132 0)
(1.02605 0.0299249 0)
(1.02598 0.028941 0)
(1.02491 0.0276542 0)
(1.02309 0.0261035 0)
(1.02063 0.0242259 0)
(1.01756 0.0218749 0)
(1.01376 0.0188303 0)
(1.00891 0.0148515 0)
(1.00242 0.00975582 0)
(0.993347 0.00358078 0)
(0.980495 -0.00330212 0)
(0.962535 -0.00973923 0)
(1.0007 0.00436677 0)
(1.00394 0.014356 0)
(1.01008 0.0212601 0)
(1.01594 0.0257172 0)
(1.02079 0.0282797 0)
(1.02439 0.0293502 0)
(1.02664 0.0294582 0)
(1.02769 0.0290005 0)
(1.02775 0.0281727 0)
(1.02697 0.0270422 0)
(1.02542 0.0255911 0)
(1.02309 0.0237395 0)
(1.01983 0.0213677 0)
(1.01535 0.0183753 0)
(1.00915 0.0147615 0)
(1.00052 0.010769 0)
(0.988843 0.00698286 0)
(0.973554 0.00431517 0)
(1.00085 0.00358354 0)
(1.00377 0.0124012 0)
(1.00911 0.0188874 0)
(1.0145 0.0233886 0)
(1.01929 0.0262623 0)
(1.02318 0.0278123 0)
(1.026 0.0284505 0)
(1.02778 0.0285113 0)
(1.02862 0.0281831 0)
(1.02859 0.027553 0)
(1.02773 0.0266412 0)
(1.02598 0.0254263 0)
(1.0232 0.0238736 0)
(1.01914 0.0219876 0)
(1.01344 0.019882 0)
(1.00561 0.0178948 0)
(0.995509 0.0166425 0)
(0.982968 0.0167208 0)
(1.00098 0.00259199 0)
(1.00377 0.0105612 0)
(1.00846 0.0166364 0)
(1.0134 0.0210657 0)
(1.01802 0.0240743 0)
(1.02199 0.0259012 0)
(1.02512 0.0268782 0)
(1.02735 0.0272928 0)
(1.0287 0.0273264 0)
(1.0292 0.0270818 0)
(1.02881 0.0266125 0)
(1.02748 0.0259466 0)
(1.02508 0.0251157 0)
(1.0214 0.0241962 0)
(1.01619 0.0233631 0)
(1.00917 0.0229634 0)
(1.00044 0.0235543 0)
(0.990284 0.0256564 0)
(1.00093 0.00179147 0)
(1.00351 0.00907009 0)
(1.00763 0.0147811 0)
(1.01208 0.019098 0)
(1.01644 0.0222145 0)
(1.02037 0.024319 0)
(1.02366 0.0256754 0)
(1.02621 0.0265268 0)
(1.02799 0.0270422 0)
(1.02898 0.0273319 0)
(1.02913 0.0274703 0)
(1.02839 0.0275176 0)
(1.02664 0.027543 0)
(1.02376 0.0276549 0)
(1.01956 0.0280337 0)
(1.01392 0.0289741 0)
(1.00711 0.0309199 0)
(0.999068 0.0344979 0)
(1.00084 0.000905825 0)
(1.00315 0.00742837 0)
(1.00679 0.0127861 0)
(1.01076 0.0169043 0)
(1.01485 0.0200201 0)
(1.01871 0.0222967 0)
(1.02214 0.0239434 0)
(1.02499 0.0251628 0)
(1.0272 0.0261089 0)
(1.02872 0.0268956 0)
(1.02948 0.0276137 0)
(1.02944 0.0283476 0)
(1.02851 0.0291931 0)
(1.02662 0.0302744 0)
(1.02366 0.0317621 0)
(1.01957 0.0338899 0)
(1.01477 0.0370021 0)
(1.00871 0.0420818 0)
(1.00068 -0.000119833 0)
(1.00271 0.00546882 0)
(1.00592 0.0104509 0)
(1.00943 0.0142568 0)
(1.01318 0.0172437 0)
(1.01687 0.0195803 0)
(1.02029 0.0214377 0)
(1.0233 0.022981 0)
(1.02581 0.0243464 0)
(1.02773 0.0256449 0)
(1.02902 0.0269744 0)
(1.02961 0.0284309 0)
(1.02947 0.0301194 0)
(1.02855 0.0321618 0)
(1.02682 0.0347031 0)
(1.02427 0.0379132 0)
(1.02139 0.0420856 0)
(1.01735 0.0486726 0)
(1.00048 -0.00107696 0)
(1.00221 0.00337979 0)
(1.00502 0.00798879 0)
(1.00814 0.0114138 0)
(1.01154 0.0141686 0)
(1.01501 0.0164544 0)
(1.01835 0.0184262 0)
(1.02143 0.0202199 0)
(1.02414 0.0219524 0)
(1.0264 0.0237249 0)
(1.02816 0.0256309 0)
(1.02937 0.027763 0)
(1.03002 0.0302178 0)
(1.0301 0.0330981 0)
(1.02961 0.0365099 0)
(1.02857 0.0405576 0)
(1.02748 0.0455227 0)
(1.02546 0.0533977 0)
(1.00028 -0.00193188 0)
(1.0017 0.00119289 0)
(1.00414 0.0053541 0)
(1.00694 0.00831316 0)
(1.01008 0.0107259 0)
(1.01336 0.0128387 0)
(1.01664 0.0148059 0)
(1.01978 0.0167434 0)
(1.02268 0.0187481 0)
(1.02528 0.0209042 0)
(1.02752 0.0232897 0)
(1.02937 0.0259801 0)
(1.03084 0.0290499 0)
(1.03192 0.0325713 0)
(1.03266 0.0366074 0)
(1.03306 0.0412082 0)
(1.03353 0.0466613 0)
(1.03354 0.0553596 0)
(1.00011 -0.0026357 0)
(1.00125 -0.0010062 0)
(1.00334 0.0025008 0)
(1.00596 0.00484245 0)
(1.00898 0.00676868 0)
(1.01223 0.00856171 0)
(1.01555 0.0103771 0)
(1.01884 0.0123121 0)
(1.02201 0.0144405 0)
(1.025 0.0168229 0)
(1.02777 0.0195125 0)
(1.03031 0.0225574 0)
(1.03261 0.0260023 0)
(1.0347 0.0298856 0)
(1.03661 0.0342323 0)
(1.03835 0.0390538 0)
(1.04014 0.0446328 0)
(1.04215 0.0534417 0)
(1.00001 -0.00316867 0)
(1.00095 -0.00317807 0)
(1.00275 -0.00076784 0)
(1.0054 0.000664007 0)
(1.00855 0.00187553 0)
(1.01198 0.00314713 0)
(1.01555 0.00461425 0)
(1.01917 0.0063464 0)
(1.02274 0.00838639 0)
(1.02622 0.0107629 0)
(1.02959 0.0134981 0)
(1.03283 0.0166082 0)
(1.03595 0.0201055 0)
(1.03897 0.023997 0)
(1.04195 0.0282792 0)
(1.04487 0.0329367 0)
(1.04775 0.038223 0)
(1.05162 0.0463479 0)
(0.999917 -0.00384164 0)
(1.00078 -0.00482613 0)
(1.00262 -0.00392087 0)
(1.00558 -0.00360819 0)
(1.0091 -0.00321399 0)
(1.01292 -0.00252936 0)
(1.01688 -0.00147214 0)
(1.02088 -1.74705e-05 0)
(1.02484 0.00183579 0)
(1.02873 0.00408103 0)
(1.03253 0.00671128 0)
(1.03624 0.00971594 0)
(1.03988 0.0130831 0)
(1.04348 0.0167968 0)
(1.04708 0.0208353 0)
(1.05067 0.0251687 0)
(1.05415 0.0299712 0)
(1.05894 0.0369455 0)
(0.999776 -0.00415871 0)
(1.00068 -0.00623708 0)
(1.00279 -0.00679189 0)
(1.00619 -0.00747582 0)
(1.01013 -0.00776037 0)
(1.01433 -0.00753076 0)
(1.01861 -0.0067701 0)
(1.02285 -0.00551031 0)
(1.02701 -0.0037955 0)
(1.03107 -0.00166543 0)
(1.03503 0.000846976 0)
(1.03891 0.00371388 0)
(1.04273 0.00691152 0)
(1.04652 0.010412 0)
(1.05034 0.014185 0)
(1.05419 0.0181924 0)
(1.05787 0.0225477 0)
(1.06294 0.028534 0)
(0.999642 -0.00434145 0)
(1.00061 -0.00765599 0)
(1.00314 -0.0096756 0)
(1.00706 -0.011269 0)
(1.01144 -0.0121137 0)
(1.01595 -0.0122074 0)
(1.02041 -0.0116134 0)
(1.02471 -0.0104368 0)
(1.02882 -0.0087772 0)
(1.03277 -0.00670712 0)
(1.03659 -0.00427945 0)
(1.04032 -0.00153571 0)
(1.044 0.00149158 0)
(1.04767 0.0047729 0)
(1.0514 0.00827816 0)
(1.0552 0.0119684 0)
(1.05883 0.0159051 0)
(1.0638 0.020992 0)
(0.999477 -0.0044173 0)
(1.00047 -0.00917487 0)
(1.00355 -0.0126082 0)
(1.00804 -0.0149578 0)
(1.01279 -0.0161962 0)
(1.01745 -0.0164313 0)
(1.02185 -0.0158239 0)
(1.0259 -0.0145775 0)
(1.02962 -0.0128571 0)
(1.0331 -0.0107661 0)
(1.03641 -0.00837346 0)
(1.03964 -0.00572304 0)
(1.04285 -0.00284874 0)
(1.0461 0.000223256 0)
(1.04944 0.0034662 0)
(1.05291 0.00685063 0)
(1.0563 0.0104077 0)
(1.06088 0.0147377 0)
(0.999267 -0.00435595 0)
(1.00018 -0.0108993 0)
(1.00394 -0.0156147 0)
(1.00899 -0.0184798 0)
(1.0139 -0.0198896 0)
(1.01841 -0.0200373 0)
(1.02233 -0.0192067 0)
(1.02566 -0.0177301 0)
(1.02852 -0.0158338 0)
(1.03107 -0.0136468 0)
(1.03346 -0.0112501 0)
(1.0358 -0.00868405 0)
(1.03819 -0.00596892 0)
(1.0407 -0.00311895 0)
(1.04339 -0.00015086 0)
(1.0463 0.00291259 0)
(1.04926 0.00609305 0)
(1.05325 0.00978836 0)
(0.998915 -0.00377381 0)
(0.99956 -0.0126882 0)
(1.00425 -0.0186089 0)
(1.00971 -0.0217094 0)
(1.01435 -0.0230035 0)
(1.01811 -0.0227826 0)
(1.02088 -0.0215061 0)
(1.0228 -0.0196555 0)
(1.02415 -0.0175085 0)
(1.02522 -0.0151988 0)
(1.02621 -0.0127954 0)
(1.02726 -0.0103332 0)
(1.0285 -0.00781544 0)
(1.02999 -0.00523019 0)
(1.03181 -0.00257695 0)
(1.03398 0.000130954 0)
(1.03637 0.00291003 0)
(1.03966 0.00604413 0)
(0.997905 -0.00162685 0)
(0.998185 -0.0138341 0)
(1.00425 -0.021143 0)
(1.00976 -0.024333 0)
(1.01324 -0.0252007 0)
(1.01518 -0.0243025 0)
(1.01572 -0.022391 0)
(1.01525 -0.0200949 0)
(1.0143 -0.0177002 0)
(1.01325 -0.015312 0)
(1.01234 -0.0129717 0)
(1.01174 -0.0106836 0)
(1.01154 -0.00843162 0)
(1.0118 -0.00618214 0)
(1.01258 -0.00390455 0)
(1.01388 -0.00160494 0)
(1.01563 0.000731777 0)
(1.01819 0.00333498 0)
(0.99564 6.82539e-05 0)
(0.995639 -0.0148469 0)
(1.00333 -0.0227527 0)
(1.0078 -0.0258246 0)
(1.00838 -0.0259665 0)
(1.00667 -0.0241162 0)
(1.00336 -0.0214821 0)
(0.999224 -0.0187986 0)
(0.995026 -0.0162828 0)
(0.991206 -0.0139613 0)
(0.987965 -0.0118212 0)
(0.985399 -0.00983042 0)
(0.983557 -0.00794441 0)
(0.982445 -0.00611643 0)
(0.982079 -0.00429014 0)
(0.982453 -0.00245717 0)
(0.983523 -0.000617029 0)
(0.985424 0.00143869 0)
(0.995313 -0.0122495 0)
(0.994992 -0.0234641 0)
(1.00086 -0.0252996 0)
(1.00016 -0.0260818 0)
(0.994101 -0.0248805 0)
(0.98562 -0.0219025 0)
(0.97611 -0.0186198 0)
(0.966743 -0.0157514 0)
(0.958327 -0.0133476 0)
(0.951146 -0.0113056 0)
(0.945209 -0.00953823 0)
(0.940456 -0.00797444 0)
(0.936818 -0.00655041 0)
(0.93423 -0.00520887 0)
(0.932643 -0.00390528 0)
(0.932033 -0.00259294 0)
(0.932399 -0.00130182 0)
(0.933763 0.000141603 0)
(1.01615 -0.0633433 0)
(1.01007 -0.0605263 0)
(0.9959 -0.036167 0)
(0.974703 -0.0262443 0)
(0.95236 -0.0219032 0)
(0.931444 -0.0179189 0)
(0.912578 -0.014381 0)
(0.89634 -0.0116573 0)
(0.882902 -0.00960399 0)
(0.871958 -0.0080006 0)
(0.86309 -0.00670164 0)
(0.855973 -0.00561371 0)
(0.850377 -0.00466861 0)
(0.846123 -0.0038262 0)
(0.8431 -0.00305331 0)
(0.84128 -0.00226404 0)
(0.840717 -0.0015365 0)
(0.841519 -0.000717908 0)
(0.962984 0.268648 0)
(0.966083 0.0999954 0)
(0.909754 0.0147391 0)
(0.836062 -0.00646757 0)
(0.778278 -0.00845414 0)
(0.73768 -0.00653783 0)
(0.707841 -0.00472098 0)
(0.684944 -0.00358908 0)
(0.667067 -0.00290268 0)
(0.652865 -0.002424 0)
(0.641384 -0.0020424 0)
(0.632015 -0.00171565 0)
(0.624374 -0.00142717 0)
(0.618182 -0.00118814 0)
(0.613169 -0.000980982 0)
(0.609179 -0.000749138 0)
(0.606592 -0.000551645 0)
(0.605367 -0.000451107 0)
(-0.00160404 0.00318576 5.24434e-19)
(0.00607539 -0.0139446 -4.39967e-19)
(0.0266501 -0.028166 0)
(0.0531135 -0.0366137 0)
(0.0819136 -0.040056 0)
(0.110186 -0.0396481 3.0142e-19)
(0.136648 -0.0368754 0)
(0.160367 -0.0327174 0)
(0.180793 -0.0277812 0)
(0.197621 -0.0224329 0)
(0.210692 -0.0168739 -2.52861e-19)
(0.219932 -0.011182 0)
(0.225236 -0.00542783 0)
(0.22666 0.000204881 0)
(0.224233 0.0055272 0)
(0.218311 0.0102895 -2.40379e-19)
(0.209297 0.0142924 0)
(0.197615 0.0174446 0)
(0.18368 0.0197404 0)
(0.168058 0.0213266 0)
(0.150399 0.0223205 0)
(0.131928 0.0228741 0)
(0.112496 0.0233521 0)
(0.0911826 0.0240173 -2.14316e-19)
(0.0682617 0.02526 2.07963e-19)
(0.0430295 0.0275931 -2.02982e-19)
(0.0131457 0.0301677 -1.99088e-19)
(-0.0186185 0.0311408 0)
(-0.0448823 0.0322249 0)
(-0.0867099 0.035933 1.83713e-19)
(-0.136264 0.0441487 1.75639e-19)
(-0.177245 0.0503519 0)
(-0.22581 0.0493257 0)
(-0.285908 0.0537965 1.56978e-19)
(-0.343245 0.0679762 0)
(-0.406245 0.0816287 0)
(-0.475177 0.0867464 -1.43629e-19)
(-0.546207 0.110309 0)
(-0.623171 0.108901 -1.67095e-19)
(-0.708565 0.0728261 -3.40894e-19)
(-0.781656 0.0711559 0)
(-0.856916 0.0740447 0)
(-0.933877 0.0727176 0)
(-1.00855 0.0703037 0)
(-1.0808 0.0672291 0)
(-1.15 0.0637436 -2.68183e-19)
(-1.21589 0.0600506 -2.60096e-19)
(-1.27832 0.0562979 -2.52867e-19)
(-1.33726 0.0525885 0)
(-1.39274 0.0489917 2.40594e-19)
(-1.44486 0.0455498 0)
(-1.49375 0.0422854 -2.30672e-19)
(-1.53954 0.0392051 -2.26417e-19)
(-1.58237 0.0363056 0)
(-1.62237 0.0335756 0)
(-1.65968 0.0309997 0)
(-1.69439 0.0285591 -2.12886e-19)
(-1.72659 0.0262346 0)
(-1.75637 0.0240056 0)
(-1.78376 0.021853 0)
(-1.80882 0.0197576 0)
(-1.83154 0.017702 0)
(-1.85195 0.0156688 0)
(-1.87002 0.0136431 0)
(-1.88573 0.0116104 0)
(-1.89905 0.00955992 1.94379e-19)
(-1.90991 0.00748455 0)
(-1.91827 0.00538499 0)
(-1.92407 0.00326928 -1.9018e-19)
(-1.92728 0.00119612 -1.8892e-19)
(-1.92779 -0.000731646 0)
(-1.92563 -0.00248946 1.86573e-19)
(-1.92096 -0.00415657 -1.85442e-19)
(-1.91379 -0.0057749 0)
(-1.90415 -0.00735365 1.83173e-19)
(-1.89203 -0.00890145 0)
(-1.87743 -0.0104268 0)
(-1.86036 -0.011932 -1.79641e-19)
(-1.84081 -0.013422 0)
(-1.81876 -0.0149033 1.77167e-19)
(-1.79422 -0.0163865 0)
(-1.76715 -0.0178782 -1.74604e-19)
(-1.73752 -0.0193761 -1.73297e-19)
(-1.70529 -0.0208832 -1.71977e-19)
(-1.67044 -0.0224074 -3.41295e-19)
(-1.63288 -0.0239613 3.38616e-19)
(-1.59252 -0.0255854 0)
(-1.54927 -0.0272935 0)
(-1.50297 -0.0290676 0)
(-1.45372 -0.0309197 3.27645e-19)
(-1.40138 -0.0328583 3.2485e-19)
(-1.34581 -0.0348951 -3.22039e-19)
(-1.28686 -0.0370438 0)
(-1.22438 -0.0393122 3.16329e-19)
(-1.15824 -0.0417051 3.13418e-19)
(-1.0883 -0.0442248 3.10469e-19)
(-1.01442 -0.0468713 0)
(-0.936489 -0.0496399 0)
(-0.854391 -0.0525182 0)
(-0.768055 -0.0554828 2.98399e-19)
(-0.677454 -0.0584945 0)
(-0.582642 -0.0614925 0)
(-0.483786 -0.0643868 -2.8911e-19)
(-0.381219 -0.0670482 0)
(-0.275503 -0.0692948 0)
(-0.167506 -0.0708783 -2.79333e-19)
(-0.0585267 -0.0714728 0)
(0.0496578 -0.0706567 0)
(0.154608 -0.0679779 2.68045e-19)
(0.252467 -0.0628377 2.63582e-19)
(0.341216 -0.0536708 0)
(0.417912 -0.0394277 -2.53335e-19)
(0.469179 -0.0239101 0)
(0.492617 -0.0128966 2.39694e-19)
(0.503887 -0.00680578 0)
(0.508171 -0.00261973 2.21056e-19)
(0.504564 0.000827726 2.11305e-19)
(0.495838 0.00372952 0)
(0.480934 0.00631871 0)
(0.463282 0.0102511 0)
(0.442119 0.011866 0)
(0.380588 -0.011119 0)
(0.402642 0.0107123 0)
(0.36389 0.0385307 0)
(0.296065 0.00443538 1.32619e-19)
(0.277447 0.00746079 -1.09588e-19)
(0.264024 0.0394474 0)
(0.178027 0.0381264 0)
(0.11515 0.00571671 0)
(0.103525 0.0140182 0)
(0.0622646 0.0369318 -1.49489e-19)
(-0.0331297 0.017812 0)
(-0.0452653 0.0212057 1.23951e-19)
(-0.116116 0.0163545 -1.22658e-19)
(-0.14743 0.00768511 0)
(-0.184518 0.019153 0)
(-0.219181 0.0126899 0)
(-0.261445 0.0118798 7.64191e-20)
(-0.29385 0.0152642 7.1089e-20)
(-0.325648 0.0135861 0)
(-0.355293 0.0129271 6.3394e-20)
(-0.382571 0.0120303 6.03581e-20)
(-0.407666 0.0107093 -5.77689e-20)
(-0.430221 0.00941798 0)
(-0.450299 0.00799593 0)
(-0.467662 0.00650197 -5.22026e-20)
(-0.482141 0.00506411 0)
(-0.493683 0.00367904 0)
(-0.502313 0.00224938 0)
(-0.507738 0.000670391 0)
(-0.509716 -0.00100192 4.84108e-20)
(-0.508252 -0.00262369 4.83191e-20)
(-0.503279 -0.00421137 0)
(-0.494721 -0.00575561 4.8728e-20)
(-0.482594 -0.00727029 0)
(-0.466792 -0.00895361 0)
(-0.446938 -0.010938 5.06744e-20)
(-0.422806 -0.0129354 0)
(-0.394723 -0.0145332 5.27825e-20)
(-0.363128 -0.0157826 0)
(-0.328054 -0.0170687 0)
(-0.289391 -0.0185241 5.71346e-20)
(-0.247148 -0.0199765 0)
(-0.201862 -0.0211899 6.06656e-20)
(-0.15418 -0.0219507 0)
(-0.104144 -0.0227275 0)
(-0.0523151 -0.0233058 0)
(0.000507978 -0.0235307 -6.8272e-20)
(0.0538269 -0.0233994 0)
(0.107266 -0.022994 6.73031e-20)
(0.160025 -0.0223488 0)
(0.211478 -0.0214762 0)
(0.261005 -0.0203968 0)
(0.308039 -0.0191405 0)
(0.352085 -0.0177376 0)
(0.392677 -0.0162041 0)
(0.429391 -0.0144915 0)
(0.460935 -0.0124338 -1.18969e-19)
(0.487387 -0.00891974 0)
(0.494743 -0.00103922 0)
(0.00821107 -0.0140455 -1.54801e-18)
(0.0289131 -0.0562306 1.17977e-18)
(0.0568486 -0.0781532 0)
(0.0823195 -0.0844584 -4.94056e-19)
(0.104998 -0.0834851 0)
(0.124944 -0.07818 -1.97802e-19)
(0.142265 -0.0702722 3.69364e-19)
(0.157001 -0.0608555 3.50848e-19)
(0.169112 -0.0506213 0)
(0.178542 -0.040006 3.28522e-19)
(0.185258 -0.0292815 1.61031e-19)
(0.189172 -0.0185799 0)
(0.190341 -0.00806117 0)
(0.188888 0.00207826 0)
(0.18463 0.0116079 0)
(0.177666 0.02025 1.54973e-19)
(0.167959 0.0278774 0)
(0.155445 0.0344913 -3.10502e-19)
(0.140142 0.0401613 0)
(0.121826 0.0451253 0)
(0.100771 0.0496132 3.08786e-19)
(0.0767318 0.0538716 0)
(0.0494247 0.0582269 -2.97161e-19)
(0.0190828 0.0629841 1.45992e-19)
(-0.0146789 0.0686494 -1.44213e-19)
(-0.0518463 0.0758756 1.43299e-19)
(-0.0932776 0.0845973 1.43201e-19)
(-0.140478 0.093379 0)
(-0.191987 0.10268 0)
(-0.247967 0.11127 -1.35798e-19)
(-0.305605 0.11918 1.3016e-19)
(-0.366448 0.128239 0)
(-0.433021 0.137272 0)
(-0.504202 0.145001 -1.16938e-19)
(-0.575733 0.15376 0)
(-0.650403 0.161274 0)
(-0.726242 0.165019 1.07689e-19)
(-0.797964 0.169492 0)
(-0.869053 0.17603 -1.05286e-19)
(-0.937701 0.175684 2.03065e-19)
(-1.00451 0.172789 0)
(-1.06693 0.168596 0)
(-1.12488 0.162588 3.66125e-19)
(-1.17923 0.155214 3.55117e-19)
(-1.23029 0.147126 3.45115e-19)
(-1.2783 0.138708 -1.68089e-19)
(-1.32346 0.130243 1.63832e-19)
(-1.36597 0.121926 4.80425e-19)
(-1.40602 0.113888 -3.13551e-19)
(-1.44378 0.106208 -1.53627e-19)
(-1.4794 0.0989228 0)
(-1.51303 0.0920432 1.48286e-19)
(-1.54479 0.0855583 -1.46124e-19)
(-1.57476 0.0794429 0)
(-1.60304 0.073664 0)
(-1.62968 0.0681831 0)
(-1.65473 0.0629604 1.3855e-19)
(-1.67823 0.0579558 0)
(-1.70021 0.0531311 -2.71593e-19)
(-1.72067 0.04845 0)
(-1.73961 0.04388 -2.66795e-19)
(-1.75703 0.0393913 0)
(-1.77292 0.0349582 2.62716e-19)
(-1.78725 0.0305584 0)
(-1.80001 0.0261737 -2.59227e-19)
(-1.81116 0.0217896 1.28921e-19)
(-1.82069 0.0173966 0)
(-1.82857 0.0129889 2.54865e-19)
(-1.83478 0.00856249 1.26717e-19)
(-1.83931 0.00412927 1.26123e-19)
(-1.84218 -0.000261714 0)
(-1.84332 -0.00454915 1.25178e-19)
(-1.84257 -0.00873904 1.24493e-19)
(-1.83982 -0.0128732 0)
(-1.835 -0.0169626 -1.23447e-19)
(-1.82801 -0.0210104 2.45964e-19)
(-1.81882 -0.0250181 0)
(-1.80736 -0.0289844 1.21824e-19)
(-1.79359 -0.0329067 0)
(-1.77748 -0.0367841 -3.62058e-19)
(-1.75901 -0.0406203 0)
(-1.73816 -0.0444209 3.58257e-19)
(-1.71494 -0.0481909 1.18742e-19)
(-1.68933 -0.0519193 -1.18038e-19)
(-1.66137 -0.0556032 -2.34586e-19)
(-1.6311 -0.059286 2.32961e-19)
(-1.59851 -0.063001 0)
(-1.56364 -0.0667681 0)
(-1.52647 -0.0705861 0)
(-1.48684 -0.0744768 -6.78971e-19)
(-1.44467 -0.0784536 -2.247e-19)
(-1.39997 -0.0825157 2.22902e-19)
(-1.35271 -0.0866567 0)
(-1.30289 -0.0908652 2.18459e-19)
(-1.25054 -0.0951276 -2.17067e-19)
(-1.1957 -0.099429 -2.14933e-19)
(-1.13845 -0.103751 0)
(-1.0789 -0.108066 0)
(-1.01719 -0.112335 0)
(-0.953525 -0.116495 -2.0519e-19)
(-0.888144 -0.120458 0)
(-0.821367 -0.124102 3.97464e-19)
(-0.753589 -0.127262 5.873e-19)
(-0.685292 -0.129719 -3.84146e-19)
(-0.617049 -0.131193 0)
(-0.549522 -0.131326 -1.83467e-19)
(-0.483448 -0.129689 0)
(-0.419614 -0.125786 -3.50847e-19)
(-0.358801 -0.119146 1.69296e-19)
(-0.301961 -0.10941 1.63805e-19)
(-0.24927 -0.0959408 0)
(-0.198793 -0.0779027 4.59839e-19)
(-0.148489 -0.0573062 -2.94095e-19)
(-0.100223 -0.0392152 -1.42363e-19)
(-0.0575756 -0.0258897 0)
(-0.0215222 -0.0158171 -1.30814e-19)
(0.0085814 -0.00785537 -3.7311e-19)
(0.0332648 -0.00135332 0)
(0.0526836 0.00477999 -2.24685e-19)
(0.0672224 0.0131224 -2.12991e-19)
(0.0871796 0.024061 -2.0133e-19)
(0.0754108 0.0209971 0)
(0.109829 0.0177593 0)
(0.0852443 0.0290669 0)
(0.0794981 0.0363648 8.10227e-20)
(0.0825921 0.0321149 7.15351e-20)
(0.0766953 0.0356728 0)
(0.0344411 0.0450415 1.39588e-19)
(0.0123387 0.0471853 1.28484e-19)
(0.00452314 0.0453835 0)
(-0.021545 0.0481896 1.02811e-19)
(-0.0837517 0.0454894 1.98886e-19)
(-0.0807984 0.0454213 -8.31159e-20)
(-0.145224 0.0439762 -8.30844e-20)
(-0.157907 0.0399172 0)
(-0.194834 0.0364113 0)
(-0.22597 0.0352012 0)
(-0.26033 0.0337076 -5.18892e-20)
(-0.28853 0.031212 4.84838e-20)
(-0.317861 0.0288306 9.05876e-20)
(-0.345667 0.0266449 -4.26274e-20)
(-0.371683 0.0243808 4.12798e-20)
(-0.39572 0.0219857 3.89908e-20)
(-0.417612 0.019548 0)
(-0.437181 0.0170044 0)
(-0.454253 0.0143379 -3.57685e-20)
(-0.468714 0.0116599 0)
(-0.480431 0.00894504 0)
(-0.489198 0.00613977 6.6901e-20)
(-0.494889 0.00320195 0)
(-0.497393 0.000168217 3.2726e-20)
(-0.496521 -0.0028859 -3.25622e-20)
(-0.492142 -0.00595841 0)
(-0.484127 -0.00903967 3.24325e-20)
(-0.47237 -0.0121365 0)
(-0.456766 -0.0153229 0)
(-0.43721 -0.018613 -3.35012e-20)
(-0.413664 -0.0218341 6.74261e-20)
(-0.386222 -0.0248104 -3.45365e-20)
(-0.355005 -0.0275899 0)
(-0.320061 -0.0303061 0)
(-0.281479 -0.0329247 3.59683e-20)
(-0.239453 -0.0352796 0)
(-0.194384 -0.0372725 3.76854e-20)
(-0.146669 -0.0388714 0)
(-0.0965407 -0.0401846 0)
(-0.0444967 -0.0410356 0)
(0.0089289 -0.0413407 4.2574e-20)
(0.0631334 -0.0411206 0)
(0.117527 -0.0404151 -4.28461e-20)
(0.171476 -0.03923 0)
(0.224357 -0.0375935 0)
(0.275563 -0.035551 8.48806e-20)
(0.324531 -0.0331642 -8.48578e-20)
(0.370763 -0.0304919 0)
(0.413794 -0.0275596 0)
(0.453207 -0.0242626 0)
(0.48814 -0.0202709 2.54265e-19)
(0.51858 -0.0138566 0)
(0.540116 -0.00243602 -1.71144e-19)
(0.011153 -0.059845 -1.41872e-21)
(0.0336515 -0.120002 -1.43281e-18)
(0.0598272 -0.135115 0)
(0.0802779 -0.130976 8.35902e-19)
(0.0967188 -0.121729 0)
(0.109901 -0.109776 0)
(0.1204 -0.0961098 3.16921e-22)
(0.128555 -0.0814034 -2.80583e-19)
(0.134509 -0.0661074 -2.68576e-19)
(0.138309 -0.0505349 -2.59708e-19)
(0.139972 -0.0348931 0)
(0.139352 -0.0192741 0)
(0.136567 -0.00391052 2.47239e-19)
(0.131447 0.0110507 4.90686e-19)
(0.123961 0.0253838 -4.89352e-19)
(0.114077 0.0389311 0)
(0.101503 0.0516891 -4.9195e-19)
(0.0861944 0.0636622 2.45442e-19)
(0.0679507 0.0749371 0)
(0.0465115 0.0856373 -4.83285e-19)
(0.021803 0.0959225 -2.38967e-19)
(-0.00632191 0.106077 4.73246e-19)
(-0.0378672 0.116364 2.33596e-19)
(-0.0731241 0.127234 0)
(-0.11224 0.139262 -4.56714e-19)
(-0.155109 0.152981 -4.51272e-19)
(-0.201447 0.168484 0)
(-0.251348 0.184566 -4.38123e-19)
(-0.30495 0.199899 0)
(-0.361518 0.2139 -4.14349e-19)
(-0.42021 0.227505 -1.99539e-19)
(-0.481206 0.241329 0)
(-0.543781 0.253821 0)
(-0.606683 0.264278 0)
(-0.668628 0.273258 0)
(-0.728571 0.279285 0)
(-0.786471 0.281301 0)
(-0.841046 0.280009 -3.1543e-19)
(-0.891998 0.275026 4.57822e-19)
(-0.940976 0.266221 0)
(-0.988334 0.256226 0)
(-1.03334 0.24553 0)
(-1.07582 0.233938 1.18218e-22)
(-1.1162 0.221781 -2.56413e-19)
(-1.15474 0.209406 -4.9762e-19)
(-1.19162 0.197102 4.8358e-19)
(-1.22698 0.185083 2.35446e-19)
(-1.26093 0.173501 -2.29443e-19)
(-1.29353 0.162445 -1.5364e-22)
(-1.32484 0.151958 -2.19388e-19)
(-1.3549 0.142049 0)
(-1.38375 0.1327 -2.10904e-19)
(-1.41141 0.123877 -1.65219e-22)
(-1.4379 0.115533 0)
(-1.46322 0.107617 0)
(-1.48739 0.100075 1.97928e-19)
(-1.51042 0.0928547 0)
(-1.53232 0.0859029 0)
(-1.55307 0.0791713 -1.90965e-19)
(-1.57268 0.0726145 -3.77598e-19)
(-1.59115 0.0661918 1.86797e-19)
(-1.60846 0.0598667 0)
(-1.6246 0.0536081 -1.83566e-19)
(-1.63956 0.0473897 0)
(-1.65331 0.0411913 -1.81175e-19)
(-1.66585 0.0349983 -1.79646e-19)
(-1.67715 0.0288031 3.57425e-19)
(-1.68718 0.0226038 1.77865e-19)
(-1.69591 0.0164056 0)
(-1.70331 0.0102148 -3.51861e-19)
(-1.7093 0.00403127 0)
(-1.71382 -0.00216962 -5.23115e-19)
(-1.71677 -0.00840473 -3.47458e-19)
(-1.71809 -0.0146678 -3.46122e-19)
(-1.7177 -0.0209455 3.44808e-19)
(-1.71555 -0.0272265 -5.15143e-19)
(-1.71158 -0.0334983 0)
(-1.70574 -0.0397495 0)
(-1.69798 -0.0459681 3.39464e-19)
(-1.68825 -0.0521443 5.07017e-19)
(-1.67653 -0.0582685 0)
(-1.66278 -0.0643382 -1.67502e-19)
(-1.647 -0.0703396 0)
(-1.62916 -0.0762691 4.97393e-19)
(-1.60924 -0.0821376 1.60256e-22)
(-1.58722 -0.0879678 -2.22388e-22)
(-1.5631 -0.0937778 -3.25471e-19)
(-1.53684 -0.0995973 0)
(-1.50845 -0.10546 3.21111e-19)
(-1.47789 -0.111385 4.99167e-22)
(-1.44519 -0.11738 0)
(-1.41034 -0.123433 0)
(-1.37336 -0.129516 0)
(-1.33428 -0.135595 -3.09734e-19)
(-1.29314 -0.141629 0)
(-1.25001 -0.147578 0)
(-1.20498 -0.153395 0)
(-1.15816 -0.159021 0)
(-1.10969 -0.164381 0)
(-1.05974 -0.169375 -2.89447e-19)
(-1.00854 -0.173872 0)
(-0.956334 -0.177702 -2.82839e-19)
(-0.903412 -0.180653 -2.78463e-19)
(-0.85011 -0.182464 2.7379e-19)
(-0.796798 -0.182823 0)
(-0.743869 -0.181363 2.63408e-19)
(-0.691717 -0.177679 0)
(-0.640707 -0.171346 2.51341e-19)
(-0.591142 -0.161985 -2.44542e-19)
(-0.543238 -0.149385 -7.07054e-19)
(-0.496968 -0.133473 0)
(-0.451523 -0.114619 -6.58313e-19)
(-0.405657 -0.0944317 -2.08082e-19)
(-0.359692 -0.0751984 0)
(-0.315542 -0.0583123 -3.84934e-19)
(-0.274532 -0.0441102 -3.67179e-19)
(-0.237033 -0.0323341 5.25826e-19)
(-0.20314 -0.0223509 0)
(-0.1729 -0.0133481 1.5868e-19)
(-0.145772 -0.00420629 1.50096e-19)
(-0.118866 0.00594057 4.23397e-19)
(-0.096635 0.00879803 0)
(-0.0888619 0.011393 0)
(-0.0666653 0.0223612 0)
(-0.0539585 0.0308763 1.12628e-19)
(-0.0549659 0.0339979 0)
(-0.0510032 0.0414523 0)
(-0.0439185 0.0518946 -9.52578e-20)
(-0.0508206 0.0567557 -8.78959e-20)
(-0.0703921 0.059711 0)
(-0.0835608 0.0645513 0)
(-0.09681 0.0636992 -1.37356e-19)
(-0.12098 0.0642125 0)
(-0.140994 0.0638218 1.15602e-19)
(-0.170557 0.0592484 1.03182e-19)
(-0.197307 0.056778 0)
(-0.224003 0.0548631 0)
(-0.25143 0.0524735 -8.10679e-20)
(-0.277307 0.0493675 8.82403e-22)
(-0.302637 0.046406 7.87257e-22)
(-0.327229 0.0431794 0)
(-0.350584 0.0397192 -1.26888e-19)
(-0.372517 0.0360276 0)
(-0.3928 0.0321683 0)
(-0.411195 0.0281091 0)
(-0.427476 0.0238615 5.48381e-20)
(-0.441454 0.0195049 0)
(-0.452912 0.0150686 -1.05441e-19)
(-0.461619 0.0104574 -5.15084e-20)
(-0.467417 0.00567162 0)
(-0.470172 0.000755993 -5.02868e-20)
(-0.469704 -0.00423982 0)
(-0.465848 -0.00929143 0)
(-0.458451 -0.0143807 -1.49279e-19)
(-0.447363 -0.0195168 9.96613e-20)
(-0.432482 -0.0247523 0)
(-0.413784 -0.0300576 1.00821e-19)
(-0.391276 -0.0352316 -5.12041e-20)
(-0.364954 -0.0400901 0)
(-0.334815 -0.0446706 0)
(-0.300917 -0.0490857 0)
(-0.26342 -0.0532735 -1.6278e-19)
(-0.22256 -0.0570271 0)
(-0.17865 -0.060217 -5.68963e-20)
(-0.132007 -0.0628149 0)
(-0.0829422 -0.0648871 0)
(-0.0319229 -0.0662831 0)
(0.0205815 -0.0669186 0)
(0.0740122 -0.0667849 0)
(0.127722 -0.0658942 0)
(0.181076 -0.0642452 -1.24814e-19)
(0.233449 -0.0618688 0)
(0.284246 -0.0588315 -6.37891e-20)
(0.332917 -0.0552233 1.91556e-19)
(0.37898 -0.051133 0)
(0.422001 -0.0466048 0)
(0.461617 -0.0415307 -1.29859e-19)
(0.49729 -0.0355245 -1.31483e-19)
(0.529182 -0.0270806 1.32e-19)
(0.556272 -0.0141718 1.34438e-19)
(0.0106299 -0.100187 2.91839e-18)
(0.0296356 -0.17258 1.98295e-18)
(0.0502504 -0.177618 9.36969e-19)
(0.0645481 -0.162945 3.73828e-19)
(0.0748788 -0.146142 0)
(0.0822866 -0.128298 -5.67939e-19)
(0.0874114 -0.109725 2.61203e-19)
(0.0905494 -0.0906607 0)
(0.0918407 -0.0712994 2.32907e-19)
(0.0913482 -0.0517916 0)
(0.088979 -0.0321599 -4.40433e-19)
(0.0847058 -0.0125107 0)
(0.0785287 0.00699072 -2.1186e-19)
(0.070247 0.0262069 -4.1813e-19)
(0.0598334 0.0449501 4.14271e-19)
(0.0471085 0.0631802 0)
(0.0319213 0.0808635 4.09526e-19)
(0.0140707 0.0979972 0)
(-0.0066164 0.114624 0)
(-0.0302491 0.130808 4.03234e-19)
(-0.0570101 0.146722 0)
(-0.0870233 0.162609 5.79654e-22)
(-0.120391 0.178806 0)
(-0.157184 0.195695 0)
(-0.197335 0.213575 -5.36177e-22)
(-0.240582 0.232572 3.73447e-19)
(-0.2864 0.252366 3.66215e-19)
(-0.334251 0.272067 3.56954e-19)
(-0.383927 0.29065 0)
(-0.43514 0.307623 6.72355e-19)
(-0.487406 0.323081 0)
(-0.539791 0.336671 3.13449e-19)
(-0.591488 0.347489 0)
(-0.641831 0.355207 0)
(-0.690208 0.359811 -2.80851e-19)
(-0.735986 0.360734 0)
(-0.779315 0.357835 2.6109e-19)
(-0.820381 0.351666 -1.10004e-22)
(-0.859401 0.342451 -4.84727e-19)
(-0.896835 0.330641 4.66957e-19)
(-0.933098 0.317455 0)
(-0.968187 0.303481 0)
(-1.00215 0.289003 2.09952e-19)