/*--------------------------------*- C++ -*----------------------------------*\
  =========                 |
  \\      /  F ield         | OpenFOAM: The Open Source CFD Toolbox
   \\    /   O peration     | Website:  https://openfoam.org
    \\  /    A nd           | Version:  9
     \\/     M anipulation  |
\*---------------------------------------------------------------------------*/
FoamFile
{
    format      ascii;
    class       volScalarField;
    location    "0.08";
    object      epsilon;
}
// * * * * * * * * * * * * * * * * * * * * * * * * * * * * * * * * * * * * * //

dimensions      [0 2 -3 0 0 0 0];

internalField   nonuniform List<scalar> 
12225
(
209.836
126.414
81.8894
58.4813
45.82
38.4164
33.5484
29.9468
27.045
24.5845
22.4346
20.521
18.8017
17.265
15.9516
15.1081
16.1722
40.2334
62.0738
55.136
42.2367
33.3115
27.5559
23.7022
20.9816
18.939
17.3123
15.9529
14.7718
13.7103
12.7263
11.7911
10.8956
10.1481
10.5813
20.8687
31.6655
33.3082
28.8501
24.3432
20.8126
18.1707
16.1856
14.6565
13.4411
12.4469
11.6132
10.8977
10.2689
9.7042
9.20089
8.88638
9.72567
17.0412
21.93
23.9177
22.2027
19.6874
17.3484
15.4045
13.8427
12.5915
11.5796
10.7521
10.0693
9.50251
9.03152
8.64518
8.35759
8.31697
9.35991
14.9879
17.8639
19.1225
18.3263
16.7864
15.1564
13.6793
12.4182
11.3654
10.4924
9.76995
9.1744
8.68814
8.30015
8.00941
7.84346
7.95484
9.02175
13.3608
15.9051
16.4309
15.8936
14.8325
13.6288
12.4704
11.4327
10.5342
9.76967
9.12656
8.59251
8.15825
7.8198
7.58331
7.48382
7.66394
8.64688
11.9563
14.89
14.8405
14.3106
13.4711
12.5178
11.5734
10.7002
9.92277
9.2462
8.66751
8.18179
7.78554
7.47959
7.27443
7.20727
7.40236
8.24878
10.7401
14.3455
13.8779
13.2649
12.5111
11.6974
10.8918
10.1362
9.45162
8.84582
8.32024
7.87416
7.50767
7.22445
7.037
6.98087
7.15864
7.85149
9.70154
14.0497
13.2919
12.5737
11.8354
11.0918
10.3714
9.6966
9.08078
8.53039
8.04789
7.6344
7.29176
7.025
6.84679
6.78872
6.93191
7.47487
8.82919
13.8888
12.9374
12.1213
11.3651
10.6498
9.97753
9.35511
8.78799
8.27932
7.83072
7.44345
7.11983
6.86503
6.69068
6.62328
6.7247
7.13235
8.10822
13.8018
12.7262
11.8307
11.0443
10.3334
9.68469
9.09378
8.55927
8.08059
7.65758
7.29073
6.98188
6.73558
6.56165
6.48126
6.5401
6.83163
7.52163
13.7589
12.613
11.6637
10.8488
10.1312
9.49021
8.91485
8.39898
7.939
7.53289
7.17998
6.88125
6.64019
6.46467
6.37121
6.39362
6.59695
7.09057
13.7344
12.5438
11.5553
10.7154
9.98721
9.34678
8.77911
8.27465
7.82732
7.43334
7.09078
6.79956
6.56188
6.38355
6.27674
6.2654
6.39317
6.73
13.7196
12.4997
11.482
10.6203
9.8798
9.23574
8.67084
8.17319
7.73466
7.34984
7.01545
6.73015
6.49469
6.31264
6.19204
6.14843
6.20896
6.41543
13.7117
12.4748
11.4382
10.5604
9.80897
9.15964
8.59433
8.09984
7.66664
7.28801
6.95942
6.67827
6.4438
6.25739
6.12346
6.05085
6.05483
6.15837
13.7079
12.4626
11.4159
10.5284
9.76965
9.11599
8.54943
8.05626
7.62617
7.25151
6.92678
6.64824
6.41376
6.22282
6.07687
5.97987
5.93912
5.96577
13.7063
12.4576
11.4067
10.5152
9.75329
9.09798
8.53138
8.03964
7.61207
7.24043
6.91852
6.6417
6.40674
6.21162
6.05563
5.93946
5.8655
5.83809
13.7055
12.4559
11.4043
10.5126
9.75119
9.09722
8.53278
8.04385
7.61946
7.251
6.93173
6.65639
6.42094
6.22233
6.05845
5.92805
5.83081
5.76753
13.7051
12.4558
11.4057
10.5165
9.75851
9.10849
8.54828
8.0636
7.64316
7.27805
6.96117
6.68684
6.45053
6.24861
6.07819
5.93703
5.82356
5.73708
13.7058
12.4595
11.4143
10.5311
9.7793
9.13499
8.57952
8.09835
7.68012
7.31587
6.99849
6.72228
6.48264
6.2758
6.09867
5.94875
5.82413
5.72379
13.7099
12.4733
11.4404
10.5693
9.82749
9.19
8.63813
8.15768
7.73781
7.37008
7.04781
6.76564
6.51916
6.3047
6.11918
5.96006
5.82537
5.71408
13.7242
12.5171
11.515
10.6687
9.94227
9.31125
8.75853
8.27197
7.84257
7.46333
7.12861
6.83369
6.57455
6.34769
6.15009
5.97915
5.83287
5.71028
13.768
12.6382
11.7022
10.8967
10.1862
9.55229
8.98459
8.47635
8.02242
7.61826
7.25963
6.94252
6.66316
6.41803
6.20394
6.01805
5.85815
5.72322
13.8909
12.9372
12.1177
11.3605
10.6481
9.98158
9.36714
8.80853
8.30602
7.85772
7.46035
7.10991
6.80219
6.53305
6.29858
6.09531
5.92045
5.77274
14.2137
13.6137
12.9558
12.2148
11.4398
10.6789
9.96313
9.30968
8.72556
8.2095
7.75704
7.3624
7.01942
6.72219
6.4653
6.24401
6.05453
5.895
15.0277
15.0595
14.5446
13.6931
12.7177
11.747
10.8457
10.0394
9.33348
8.72425
8.20147
7.75414
7.37189
7.04546
6.76688
6.52945
6.32791
6.15942
17.0748
18.1013
17.4876
16.1896
14.7394
13.367
12.1562
11.1222
10.2512
9.52356
8.91791
8.41301
7.99112
7.63778
7.34133
7.09246
6.88399
6.71171
22.6128
24.7824
23.0918
20.5263
18.0695
15.9769
14.2741
12.911
11.8214
10.9461
10.2445
9.67827
9.21847
8.84311
8.53555
8.28315
8.07647
7.90941
41.0212
41.3901
35.0684
29.1482
24.5518
21.1119
18.5653
16.6717
15.2443
14.1504
13.3106
12.663
12.1584
11.7623
11.4505
11.2058
11.0156
10.8716
135.977
97.0903
71.6512
54.9543
43.9591
36.6702
31.7634
28.3709
25.9507
24.1793
22.8871
21.9256
21.1961
20.6383
20.2125
19.8914
19.6555
19.4898
16.7298
5.89716
7.02034
7.79593
8.31203
8.6259
8.79677
37.471
8.84799
8.50078
8.41488
8.44938
8.54177
8.60297
8.70612
8.64463
38.8352
40.7541
42.1447
42.5219
38.9479
39.5296
9.10568
41.5852
46.7151
53.0042
60.1275
67.8286
75.8858
84.1159
92.3739
100.55
108.564
116.358
123.897
131.158
138.13
144.809
151.2
157.31
163.15
168.731
174.069
179.179
184.078
188.788
193.333
197.74
202.049
206.304
210.57
214.707
218.653
222.419
226.006
229.41
232.624
235.635
238.431
240.996
243.316
245.372
247.147
248.623
249.779
250.596
251.056
251.14
250.829
250.109
248.963
247.381
245.352
242.869
239.931
236.536
232.691
228.404
223.689
218.564
213.051
207.177
200.978
194.498
187.812
181.106
175.145
171.497
168.605
165.751
162.802
159.73
156.541
153.251
149.88
146.447
142.973
139.476
135.974
132.48
129.006
125.56
122.148
118.773
115.434
112.129
108.851
105.593
102.343
99.0846
95.7951
92.443
88.9631
85.2601
81.469
77.461
73.13
68.3927
63.2588
57.7645
52.6874
12.3698
12.2086
12.0996
12.3113
12.4403
12.1931
11.4107
10.0954
8.41282
6.63951
5.05393
3.82738
2.98769
2.4657
2.16462
2.00227
1.92213
1.88925
1.88308
1.89171
1.90813
1.92819
1.94934
1.97009
1.98955
2.0073
2.02327
2.03773
2.05077
2.06134
2.06931
2.07491
2.07846
2.08028
2.0807
2.08002
2.0785
2.07634
2.07374
2.07083
2.0677
2.06443
2.06108
2.0577
2.05435
2.05108
2.04791
2.04485
2.04186
2.039
2.03649
2.03407
2.03154
2.02871
2.02543
2.02146
2.0165
2.00891
1.99624
24.5515
17.4218
15.3253
14.0974
13.2435
12.7116
12.6244
13.7088
13.3971
14.5518
16.1426
18.1554
20.7295
24.0173
28.102
33.2728
40.2822
46.155
51.6371
56.5961
60.6463
63.4441
64.9202
68.3051
69.73
70.5845
71.1163
71.435
71.6225
71.7433
71.8459
71.9637
72.1185
72.3225
72.5813
72.8958
73.2642
73.6828
74.1471
74.6528
75.1959
75.7734
76.3838
77.0271
77.7058
78.4251
79.1932
80.0227
80.9312
81.9414
83.0937
84.3275
85.5591
86.7776
87.9787
89.1585
90.3122
91.4349
92.5206
93.5634
94.5563
95.4922
96.3632
97.1612
97.8775
98.5034
99.0296
99.4471
99.7468
99.9196
99.957
99.851
99.5943
99.1805
98.6043
97.8616
96.9496
95.8674
94.6154
93.1961
91.6139
89.8757
87.9917
85.9776
83.8594
81.6846
79.5443
77.6439
75.9169
74.2103
72.4799
70.7156
68.9198
67.0995
65.2632
63.4198
61.5779
59.7455
57.9295
56.1359
54.3696
52.6345
50.9333
49.2679
47.6393
46.0475
44.492
42.9716
41.4844
40.0281
38.5997
37.1952
35.8104
34.4546
33.2895
32.2731
31.3416
30.4636
29.5858
28.6774
27.8409
24.0154
22.0257
21.101
20.3749
19.4626
18.1175
16.2306
13.8845
11.2932
8.73838
6.48628
4.7006
3.41044
2.54599
1.99887
1.66632
1.46962
1.35544
1.29028
1.25403
1.23487
1.22585
1.22287
1.22343
1.22602
1.22971
1.23395
1.23845
1.24301
1.24701
1.25023
1.25266
1.25435
1.25539
1.25589
1.25594
1.25563
1.25505
1.25424
1.25328
1.25218
1.25098
1.24972
1.24841
1.24709
1.24577
1.24449
1.24326
1.24206
1.24101
1.24018
1.23949
1.23894
1.23856
1.23846
1.23895
1.241
1.24618
1.26555
36.6891
24.1887
20.4371
18.5566
17.4719
16.94
16.9343
17.5342
18.7643
20.7356
23.5442
27.3898
32.1488
37.6816
43.7073
49.8281
55.5614
60.2176
63.5226
65.3791
65.8867
65.3729
64.2672
63.033
61.5664
60.1221
58.8189
57.7004
56.7786
56.0479
55.4921
55.0893
54.8159
54.6489
54.5685
54.5585
54.6067
54.705
54.8487
55.0354
55.2648
55.5379
55.8566
56.2232
56.6405
57.1113
57.6385
58.2246
58.8718
59.5809
60.3509
61.1538
61.9769
62.8154
63.6658
64.5249
65.3889
66.2539
67.1153
67.9681
68.8067
69.625
70.4164
71.1738
71.8898
72.5563
73.165
73.7075
74.1749
74.5587
74.8503
75.0414
75.1241
75.0912
74.9364
74.6541
74.2401
73.6912
73.0058
72.1839
71.2269
70.1384
68.9244
67.5935
66.1584
64.6356
63.0435
61.4486
59.9037
58.3593
56.7975
55.2153
53.6167
52.0084
50.3983
48.7943
47.2037
45.6333
44.089
42.5755
41.0969
39.6561
38.2552
36.8953
35.5772
34.3009
33.0657
31.8711
30.7158
29.5987
28.5186
27.4743
26.4653
25.4963
24.5906
23.7791
23.0468
22.3837
21.7741
21.2102
20.7056
19.9117
19.2606
18.9559
18.8896
18.7995
18.3454
17.2507
15.4469
13.0994
10.5226
8.05247
5.93778
4.29317
3.1136
2.32173
1.81649
1.50552
1.31852
1.20775
1.14295
1.10572
1.08507
1.07442
1.0698
1.06878
1.06987
1.07213
1.07496
1.078
1.08083
1.08322
1.08509
1.08644
1.08731
1.08774
1.08781
1.08758
1.0871
1.08644
1.08562
1.08469
1.08367
1.08259
1.08148
1.08036
1.07925
1.07817
1.07714
1.07618
1.07532
1.07463
1.07411
1.07379
1.07373
1.07409
1.07518
1.07785
1.08353
1.09773
49.713
30.8957
25.7747
23.5723
22.5656
22.3632
22.9347
24.3564
26.4947
29.4531
33.2765
37.9066
43.1051
48.4826
53.5457
57.7897
60.8053
62.3683
62.5341
61.5722
59.8706
57.8284
55.7643
53.8771
52.2281
50.8616
49.7739
48.9346
48.3043
47.8432
47.5153
47.2896
47.141
47.0505
47.0046
46.9949
47.0168
47.0689
47.1519
47.2679
47.4195
47.6098
47.8414
48.1169
48.4383
48.807
49.224
49.6895
50.2028
50.7625
51.3643
51.999
52.662
53.3503
54.0614
54.7925
55.5405
56.3018
57.0724
57.8477
58.6228
59.3918
60.1488
60.8869
61.599
62.2773
62.9138
63.4999
64.0272
64.4866
64.8695
65.1673
65.3718
65.4752
65.4705
65.3515
65.1133
64.7518
64.2645
63.6503
62.9095
62.0443
61.0582
59.9566
58.7462
57.4335
56.0227
54.5576
53.0957
51.62
50.1255
48.6144
47.0925
45.5673
44.0469
42.5391
41.0514
39.5902
38.1611
36.7687
35.4167
34.1075
32.843
31.624
30.4508
29.3232
28.2405
27.2017
26.2058
25.2516
24.3382
23.4647
22.6308
21.8377
21.0919
20.406
19.7792
19.2093
18.6907
18.2182
17.7902
17.3618
17.0008
16.8119
16.834
16.9886
17.0493
16.6996
15.6948
14.0037
11.8189
9.45478
7.21874
5.32366
3.86076
2.81796
2.1213
1.6779
1.40476
1.2399
1.14178
1.08419
1.05114
1.03295
1.02376
1.01999
1.01941
1.02063
1.02279
1.02534
1.02784
1.03005
1.03183
1.03316
1.03402
1.03447
1.03456
1.03433
1.03385
1.03316
1.03231
1.03135
1.0303
1.02919
1.02805
1.02691
1.02578
1.02469
1.02366
1.02271
1.02186
1.02118
1.02068
1.02041
1.02046
1.02098
1.02227
1.02497
1.03014
1.04024
63.5891
38.5573
32.3388
29.978
29.1663
29.3681
30.4722
32.2311
34.6989
37.8661
41.6217
45.7293
49.8316
53.5033
56.3375
58.0419
58.5139
57.862
56.3677
54.3901
52.2684
50.2555
48.4974
47.0481
45.9006
45.0238
44.3738
43.9041
43.5721
43.3418
43.184
43.0769
43.0045
42.9565
42.9271
42.9141
42.9178
42.9403
42.9849
43.0551
43.1545
43.2865
43.454
43.6595
43.9046
44.1908
44.5187
44.8883
45.2993
45.7508
46.2398
46.7625
47.3166
47.9001
48.5109
49.1468
49.8052
50.4827
51.176
51.8808
52.5924
53.3058
54.0151
54.7139
55.3955
56.0523
56.6765
57.2598
57.7937
58.2694
58.6782
59.0112
59.26
59.4168
59.4741
59.4255
59.2654
58.9894
58.5944
58.0787
57.442
56.6853
55.811
54.8227
53.7244
52.5194
51.2089
49.8356
48.4447
47.0314
45.597
44.147
42.6885
41.23
39.7798
38.3461
36.9363
35.5571
34.214
32.9117
31.6534
30.4418
29.2784
28.1638
27.0981
26.0807
25.1108
24.1872
23.3086
22.4738
21.6818
20.9316
20.2225
19.5548
18.9302
18.3534
17.8241
17.3416
16.9028
16.5037
16.1406
15.8082
15.5285
15.3511
15.3259
15.458
15.6469
15.6631
15.2301
14.1728
12.515
10.4621
8.30301
6.30398
4.6413
3.38085
2.49703
1.91398
1.54558
1.31914
1.18239
1.10095
1.0533
1.02625
1.01173
1.00478
1.00235
1.00253
1.0041
1.00631
1.00866
1.01082
1.01261
1.01398
1.01489
1.01538
1.01549
1.01526
1.01475
1.01402
1.01312
1.01208
1.01096
1.00978
1.00856
1.00735
1.00615
1.005
1.00391
1.00292
1.00204
1.00132
1.00081
1.00055
1.00062
1.00119
1.00251
1.00507
1.00954
1.017
77.8761
47.3647
40.0722
37.5401
36.8431
37.2014
38.1649
39.7182
41.8199
44.3579
47.1284
49.8448
52.1796
53.8317
54.5993
54.4321
53.4412
51.8604
49.9757
48.0514
46.2803
44.7694
43.5526
42.6155
41.9198
41.4197
41.0707
40.8331
40.6742
40.568
40.4953
40.4425
40.4009
40.3658
40.3357
40.3115
40.2954
40.2909
40.3018
40.332
40.3851
40.4647
40.5736
40.7144
40.889
41.0989
41.345
41.628
41.948
42.3048
42.6963
43.1207
43.5767
44.0631
44.5781
45.1201
45.6867
46.2753
46.8828
47.5056
48.1395
48.7799
49.4214
50.0582
50.6839
51.2915
51.8737
52.4223
52.9293
53.3859
53.7837
54.114
54.3682
54.5385
54.6173
54.598
54.4746
54.2426
53.8983
53.4397
52.8657
52.1768
51.3746
50.4613
49.4399
48.3129
47.0806
45.7906
44.4723
43.1264
41.7575
40.373
38.9812
37.5909
36.2111
34.85
33.5155
32.2142
30.9519
29.7333
28.5617
27.4396
26.3684
25.3487
24.3802
23.4622
22.5936
21.7729
20.9988
20.2697
19.5844
18.9417
18.3407
17.7808
17.2621
16.786
16.3511
15.9562
15.5986
15.2745
14.9797
14.7128
14.4835
14.3182
14.2551
14.3219
14.4897
14.6258
14.5059
13.9091
12.7358
11.0632
9.10708
7.13286
5.36797
3.94684
2.90024
2.183
1.71687
1.42445
1.24503
1.13661
1.07212
1.03464
1.0137
1.00285
0.99809
0.996896
0.997687
0.999463
1.00159
1.00365
1.00543
1.00682
1.00776
1.00827
1.00838
1.00814
1.0076
1.00682
1.00585
1.00473
1.00353
1.00226
1.00096
0.999659
0.998385
0.99716
0.996008
0.994956
0.99403
0.993269
0.992717
0.992432
0.992497
0.99305
0.9943
0.996621
1.00041
1.00609
91.516
56.3791
48.1421
45.4089
44.5398
44.4662
44.9467
45.863
47.1042
48.5176
49.8999
51.0199
51.6662
51.699
51.0886
49.9213
48.371
46.6482
44.947
43.4096
42.114
41.0829
40.3006
39.7317
39.3339
39.0664
38.8933
38.7848
38.7175
38.6738
38.6412
38.6117
38.5808
38.5468
38.51
38.4726
38.4375
38.4083
38.3887
38.3827
38.3937
38.4251
38.4799
38.5606
38.6693
38.8077
38.9772
39.1788
39.4131
39.6805
39.9794
40.3091
40.6688
41.0576
41.4744
41.9179
42.3863
42.8775
43.3888
43.9173
44.4594
45.011
45.5675
46.1237
46.6738
47.2114
47.7297
48.2213
48.6784
49.0929
49.4565
49.7608
49.9976
50.1589
50.2372
50.2258
50.1186
49.9108
49.5985
49.1791
48.6511
48.0143
47.2696
46.4186
45.4634
44.4062
43.2483
42.0415
40.7996
39.5265
38.229
36.9151
35.5942
34.2754
32.9681
31.6808
30.4215
29.1973
28.0142
26.8768
25.7889
24.7529
23.77
22.8409
21.965
21.1415
20.3689
19.6456
18.9699
18.34
17.7544
17.2117
16.7105
16.2498
15.8289
15.4473
15.1032
14.7944
14.518
14.2695
14.0446
13.8406
13.6614
13.5215
13.4474
13.4679
13.5856
13.7341
13.7571
13.4491
12.651
11.3374
9.63524
7.77198
5.99023
4.47168
3.29892
2.46366
1.90432
1.54538
1.3212
1.18363
1.10044
1.05106
1.02261
1.00705
0.999341
0.996332
0.996019
0.997131
0.998864
1.00071
1.00238
1.0037
1.00461
1.00509
1.00517
1.00488
1.00429
1.00343
1.00238
1.00119
0.999889
0.99853
0.997144
0.995761
0.994408
0.99311
0.991891
0.990777
0.989798
0.988988
0.98839
0.988062
0.988084
0.988573
0.9897
0.991733
0.994891
0.999308
103.826
64.8255
55.6894
52.4116
50.9892
50.3813
50.2077
50.2845
50.48
50.6622
50.6904
50.4346
49.8074
48.791
47.4447
45.8881
44.2673
42.7184
41.3417
40.192
39.2831
38.5995
38.1093
37.7747
37.5585
37.4275
37.3541
37.3165
37.2979
37.2861
37.273
37.2538
37.226
37.1894
37.1453
37.0959
37.0442
36.9937
36.9478
36.9101
36.884
36.8724
36.8784
36.9045
36.9527
37.0251
37.1232
37.2484
37.4016
37.5837
37.7936
38.0311
38.2955
38.5866
38.9035
39.2454
39.6109
39.9986
40.4064
40.8318
41.2721
41.7239
42.1832
42.6456
43.1062
43.5593
43.9988
44.4181
44.8099
45.1669
45.4812
45.7448
45.9499
46.0887
46.1539
46.1386
46.0369
45.8435
45.5544
45.1665
44.6779
44.0877
43.3961
42.604
41.7128
40.724
39.6452
38.5227
37.3602
36.1637
34.9409
33.7007
32.4525
31.2061
29.971
28.7561
27.57
26.4199
25.3122
24.252
23.2432
22.2883
21.3887
20.5449
19.7563
19.0218
18.3397
17.7082
17.1253
16.5888
16.0968
15.6477
15.2397
14.8713
14.5413
14.2481
13.99
13.7636
13.5653
13.3906
13.2343
13.0925
12.9653
12.8604
12.7955
12.7948
12.8721
12.9989
13.0744
12.9307
12.3954
11.3792
9.93032
8.22221
6.48588
4.92727
3.66903
2.73883
2.09669
1.67458
1.40583
1.23813
1.13503
1.07262
1.03568
1.0146
1.00333
0.998014
0.996214
0.996368
0.997481
0.998927
1.00033
1.00147
1.00225
1.00263
1.00261
1.00224
1.00155
1.0006
0.999451
0.998155
0.996759
0.995305
0.993828
0.99236
0.990928
0.989556
0.988271
0.987096
0.98606
0.985196
0.984545
0.984161
0.984116
0.98451
0.985476
0.987201
0.989791
0.993253
114.264
71.9347
61.5083
57.5922
55.7024
54.5761
53.7453
52.9989
52.221
51.3334
50.2787
49.0251
47.5778
45.9843
44.3271
42.7039
41.2057
39.8987
38.8176
37.9672
37.3304
36.8773
36.5729
36.3827
36.2753
36.2243
36.2083
36.2108
36.2194
36.2254
36.2232
36.2095
36.1831
36.1444
36.0948
36.0364
35.9721
35.9048
35.8376
35.7738
35.7164
35.6682
35.6319
35.61
35.6045
35.6176
35.6508
35.7058
35.7838
35.8858
36.0118
36.1612
36.3337
36.5292
36.7474
36.9878
37.2497
37.5318
37.833
38.1513
38.4847
38.8306
39.1858
39.5469
39.9095
40.2692
40.6206
40.958
41.2749
41.5648
41.8204
42.0344
42.1993
42.3077
42.3526
42.3273
42.2255
42.0421
41.7726
41.4136
40.9626
40.4182
39.7796
39.0471
38.221
37.3014
36.3096
35.271
34.1891
33.0705
31.9233
30.7565
29.5798
28.4031
27.2364
26.0892
24.9702
23.8876
22.8482
21.8575
20.9199
20.0381
19.2138
18.4473
17.7382
17.0851
16.4861
15.939
15.4414
14.991
14.5854
14.2225
13.9003
13.6168
13.3702
13.1586
12.9797
12.8299
12.7049
12.5995
12.5081
12.4257
12.3502
12.2847
12.2408
12.2374
12.2907
12.3919
12.4781
12.4206
12.0579
11.2695
10.0456
8.50529
6.85289
5.29962
3.99431
2.99508
2.28458
1.80595
1.495
1.29755
1.17408
1.09793
1.05176
1.02449
1.00907
1.00096
0.997275
0.996145
0.996377
0.997207
0.99817
0.998989
0.999518
0.999692
0.999502
0.99897
0.998138
0.997057
0.995783
0.994367
0.992858
0.991299
0.989724
0.988167
0.986654
0.985209
0.983856
0.982619
0.981525
0.980604
0.979893
0.979442
0.979314
0.97959
0.980372
0.981788
0.983872
0.986581
120.795
76.2329
65.0899
60.795
58.563
57.0181
55.6483
54.2403
52.7102
51.0383
49.2414
47.361
45.4573
43.6018
41.8667
40.3133
38.9828
37.8926
37.0382
36.3987
35.9439
35.6395
35.452
35.3507
35.3095
35.3068
35.3255
35.3525
35.3783
35.3962
35.4019
35.3933
35.3696
35.3311
35.2792
35.216
35.1436
35.0647
34.9821
34.8984
34.8164
34.7387
34.6675
34.6052
34.554
34.5156
34.4919
34.4845
34.4946
34.5237
34.5726
34.6402
34.7265
34.8315
34.9554
35.098
35.2589
35.4375
35.6332
35.8447
36.0706
36.3092
36.5582
36.815
37.0763
37.3385
37.5973
37.8478
38.0849
38.3024
38.4943
38.6538
38.7741
38.8482
38.8694
38.8311
38.7272
38.5524
38.3019
37.9719
37.5593
37.0619
36.4783
35.8075
35.0493
34.2041
33.3011
32.3463
31.3449
30.3034
29.23
28.1335
27.0238
25.911
24.8055
23.7173
22.6563
21.6309
20.649
19.7169
18.8393
18.0196
17.2596
16.56
15.92
15.3383
14.8127
14.3407
13.9194
13.5461
13.2181
12.9327
12.6876
12.4803
12.3087
12.1705
12.0632
11.9826
11.924
11.8817
11.8496
11.8219
11.795
11.7693
11.7519
11.7569
11.7996
11.8808
11.9615
11.9451
11.6905
11.068
10.0304
8.6508
7.10135
5.58557
4.26575
3.22292
2.46045
1.93432
1.58543
1.35986
1.21637
1.12623
1.07037
1.0364
1.01633
1.00498
0.999025
0.996283
0.995356
0.995339
0.995666
0.995997
0.996139
0.995996
0.99554
0.994778
0.993744
0.992483
0.991046
0.989483
0.987841
0.986161
0.984479
0.982826
0.981227
0.979705
0.978284
0.976984
0.97583
0.974848
0.974073
0.973547
0.973323
0.973468
0.974056
0.975172
0.976809
0.978907
124.135
78.402
66.783
62.2182
59.7457
57.9123
56.1773
54.3311
52.3183
50.1651
47.9402
45.7303
43.6223
41.6905
39.9888
38.5469
37.3715
36.4506
35.7586
35.2626
34.9275
34.7188
34.6053
34.5601
34.5607
34.5888
34.6303
34.6745
34.7133
34.7415
34.7554
34.7534
34.7347
34.6998
34.6497
34.5859
34.5105
34.4257
34.3336
34.2366
34.1371
34.0372
33.939
33.8447
33.7562
33.6752
33.6033
33.5423
33.4936
33.4585
33.4383
33.432
33.4397
33.4616
33.498
33.5491
33.6148
33.6952
33.7898
33.8984
34.0201
34.1539
34.2984
34.452
34.6124
34.777
34.9425
35.1053
35.261
35.4047
35.5311
35.6345
35.7085
35.747
35.7435
35.6918
35.5858
35.4201
35.1896
34.8901
34.518
34.0701
33.544
32.9375
32.2487
31.4889
30.6714
29.799
28.8764
27.9095
26.906
25.8746
24.8249
23.7674
22.7131
21.6729
20.6574
19.6764
18.7387
17.8515
17.0204
16.2495
15.541
14.8957
14.3129
13.7911
13.3278
12.9201
12.5648
12.2586
11.9983
11.7808
11.6032
11.4629
11.3571
11.2832
11.2387
11.2191
11.2189
11.2322
11.2525
11.2734
11.2904
11.3018
11.3119
11.3308
11.372
11.4399
11.5104
11.5105
11.3206
10.8146
9.9244
8.68836
7.24709
5.78913
4.48026
3.41662
2.61876
2.05545
1.67425
1.42327
1.26084
1.15697
1.09127
1.05028
1.02518
1.01021
1.00163
0.996959
0.994598
0.993496
0.992986
0.992655
0.992263
0.991682
0.990857
0.989782
0.988478
0.986983
0.985342
0.9836
0.981801
0.979983
0.97818
0.976422
0.974731
0.973129
0.971636
0.970272
0.969056
0.96801
0.967167
0.966561
0.966236
0.966243
0.966636
0.967471
0.968714
0.970307
125.121
78.8813
66.938
62.1836
59.566
57.5793
55.6599
53.5982
51.355
48.9829
46.5792
44.2531
42.1016
40.195
38.5721
37.2425
36.1931
35.3964
34.8169
34.4169
34.1601
34.0132
33.9476
33.9389
33.9673
34.0169
34.0755
34.1336
34.1845
34.2233
34.2471
34.254
34.2434
34.2156
34.1711
34.1114
34.0379
33.9524
33.8568
33.7528
33.6426
33.5279
33.4107
33.2926
33.1753
33.0605
32.9497
32.8444
32.7461
32.6561
32.5759
32.5047
32.4427
32.3902
32.3476
32.3153
32.2937
32.2832
32.2839
32.296
32.3194
32.3538
32.3987
32.4533
32.5164
32.5864
32.6611
32.738
32.8138
32.8848
32.9467
32.9946
33.0232
33.0267
32.9994
32.9352
32.8284
32.6733
32.4647
32.198
31.8686
31.4727
31.0068
30.467
29.8551
29.1814
28.4476
27.6556
26.8091
25.9131
24.9744
24.0011
23.0028
21.9905
20.9757
19.9704
18.9865
18.0352
17.1267
16.2694
15.4701
14.7337
14.0629
13.4587
12.9206
12.4468
12.0343
11.6799
11.3799
11.1303
10.9276
10.7679
10.6482
10.565
10.5155
10.4968
10.5061
10.5385
10.5883
10.649
10.714
10.7766
10.8314
10.8758
10.9115
10.9461
10.9906
11.0506
11.1104
11.1141
10.961
10.5344
9.75734
8.64391
7.30744
5.91838
4.63902
3.57371
2.75599
2.16615
1.7591
1.48623
1.30659
1.18968
1.11429
1.06614
1.03575
1.01687
1.00535
0.99847
0.994414
0.991995
0.990444
0.989277
0.988201
0.987054
0.985755
0.984279
0.982635
0.980849
0.978959
0.977003
0.97502
0.973044
0.971107
0.969234
0.967445
0.965759
0.964192
0.96276
0.961481
0.960371
0.959458
0.958771
0.958343
0.958213
0.958418
0.958992
0.959892
0.961065
124.193
78.0403
65.9201
61.0564
58.3835
56.3651
54.4192
52.3297
50.0599
47.67
45.267
42.9669
40.8688
39.0392
37.5087
36.2775
35.3242
34.6149
34.111
33.7737
33.5672
33.4602
33.4257
33.4415
33.4896
33.5557
33.6285
33.6996
33.7627
33.8135
33.8489
33.8673
33.8677
33.8503
33.8153
33.7636
33.6965
33.6152
33.5213
33.4162
33.3016
33.1789
33.0497
32.9154
32.7775
32.6374
32.4964
32.3559
32.2172
32.0816
31.9506
31.8238
31.7014
31.5837
31.4712
31.3647
31.2648
31.1721
31.0874
31.0112
30.9441
30.8865
30.8388
30.8008
30.7725
30.7532
30.7419
30.7371
30.7368
30.7384
30.7387
30.7336
30.719
30.6897
30.6405
30.5659
30.4602
30.3178
30.1333
29.9014
29.617
29.2754
28.8717
28.4027
27.8735
27.2828
26.6303
25.9163
25.1427
24.3131
23.433
22.5102
21.5539
20.5755
19.5876
18.6034
17.6364
16.6996
15.8049
14.9624
14.1803
13.4642
12.8178
12.2421
11.7367
11.2993
10.9269
10.6153
10.3604
10.1575
10.0025
9.89122
9.81972
9.78445
9.78206
9.80938
9.86351
9.93921
10.0304
10.1303
10.2322
10.3291
10.4152
10.487
10.5451
10.5946
10.6442
10.6997
10.7499
10.7504
10.6163
10.2423
9.55008
8.53848
7.29881
5.9832
4.74601
3.69429
2.8704
2.26432
1.83818
1.54745
1.35276
1.22387
1.13921
1.08397
1.04818
1.02516
1.01046
1.00111
0.995121
0.991166
0.988378
0.986202
0.984295
0.982455
0.980576
0.978613
0.976556
0.974422
0.972237
0.970032
0.967839
0.965687
0.963602
0.961604
0.959711
0.957937
0.956294
0.954794
0.953451
0.952278
0.951297
0.95053
0.950001
0.949739
0.949769
0.950109
0.950712
0.951534
121.736
76.221
64.0788
59.1888
56.5404
54.5889
52.7385
50.7614
48.612
46.3444
44.0616
41.8772
39.8883
38.1597
36.7209
35.5707
34.6869
34.0359
33.5797
33.2806
33.1047
33.0218
33.0069
33.039
33.1014
33.1805
33.2659
33.3495
33.4254
33.4892
33.538
33.5699
33.5838
33.5794
33.5569
33.5167
33.4596
33.3866
33.2988
33.1975
33.0837
32.9588
32.8238
32.6801
32.5287
32.3708
32.2075
32.0401
31.8695
31.6971
31.524
31.3505
31.1766
31.0029
30.8299
30.6585
30.4896
30.3241
30.1631
30.0077
29.859
29.7181
29.5859
29.4634
29.3511
29.2495
29.1587
29.0782
29.0073
28.9444
28.8874
28.8334
28.779
28.7201
28.652
28.5695
28.4672
28.3396
28.181
27.9857
27.7479
27.4619
27.1233
26.7309
26.2813
25.7711
25.1974
24.5585
23.854
23.0857
22.2579
21.3773
20.4532
19.4974
18.5235
17.5465
16.5818
15.6448
14.7493
13.9074
13.1289
12.4205
11.7865
11.2283
10.7451
10.3345
9.99256
9.7147
9.49586
9.33093
9.21493
9.14316
9.11128
9.1153
9.15149
9.21642
9.30695
9.41755
9.54184
9.67303
9.80403
9.92793
10.0387
10.1324
10.2084
10.2705
10.3254
10.3779
10.4194
10.4132
10.2868
9.94633
9.31674
8.38829
7.23557
5.99372
4.80674
3.78025
2.96177
2.34883
1.91024
1.60586
1.39862
1.2591
1.16581
1.1037
1.0625
1.03522
1.01716
1.00512
0.996984
0.991291
0.987082
0.983734
0.980852
0.978198
0.975637
0.9731
0.970562
0.968025
0.965502
0.963015
0.960588
0.958242
0.955996
0.953866
0.951864
0.949999
0.948279
0.946713
0.945308
0.944075
0.943029
0.942186
0.941562
0.941179
0.941049
0.941183
0.941533
0.942062
118.082
73.7161
61.7149
56.8833
54.3279
52.5172
50.8475
49.0769
47.144
45.0879
42.9992
40.9832
39.1333
37.5151
36.161
35.0744
34.2377
33.6212
33.1902
32.91
32.7484
32.6771
32.6721
32.7136
32.7854
32.8744
32.9706
33.0659
33.1545
33.2318
33.2949
33.3416
33.3705
33.3811
33.373
33.3466
33.3022
33.2405
33.1623
33.0684
32.9596
32.837
32.7013
32.5535
32.3945
32.2251
32.0462
31.8588
31.6639
31.4623
31.2553
31.0432
30.8263
30.6052
30.3804
30.1531
29.9243
29.6954
29.4676
29.2424
29.0215
28.8065
28.599
28.4006
28.2129
28.0372
27.8746
27.7257
27.5908
27.4695
27.3608
27.2629
27.1733
27.0886
27.0048
26.9173
26.8209
26.71
26.5788
26.4213
26.2306
26.0029
25.7325
25.4138
25.0412
24.6087
24.111
23.5437
22.9041
22.1918
21.4093
20.5626
19.6607
18.7161
17.7438
16.7607
15.7848
14.8339
13.9244
13.0707
12.2843
11.5731
10.942
10.3924
9.92343
9.5318
9.21295
8.96144
8.77139
8.63695
8.55249
8.51275
8.51293
8.54862
8.6158
8.71075
8.83002
8.96785
9.1177
9.27265
9.42559
9.56962
9.69866
9.80853
9.89799
9.96954
10.0284
10.0783
10.1116
10.0967
9.97082
9.65047
9.06648
8.20541
7.12971
5.95951
4.82741
3.83471
3.03102
2.41943
1.97456
1.66074
1.44357
1.29493
1.19381
1.1252
1.07869
1.04711
1.02554
1.01066
1.00019
0.99258
0.986781
0.982108
0.978118
0.974536
0.971196
0.968006
0.964923
0.96193
0.95903
0.956232
0.953549
0.950994
0.948578
0.946309
0.944195
0.942239
0.940445
0.938815
0.937351
0.936063
0.934958
0.934046
0.933337
0.932844
0.932574
0.93253
0.932667
0.932955
113.308
70.6589
58.9855
54.3049
51.9062
50.2947
48.8668
47.3673
45.7153
43.9296
42.0831
40.2695
38.5774
37.0738
35.7973
34.7594
33.9506
33.3482
32.9231
32.6442
32.482
32.4101
32.4056
32.449
32.5247
32.6198
32.724
32.8293
32.9297
33.0203
33.0978
33.1598
33.2046
33.2312
33.2391
33.2281
33.1984
33.1502
33.0839
33.0002
32.8995
32.7825
32.6498
32.502
32.3397
32.1635
31.9741
31.7722
31.5585
31.3339
31.0992
30.8551
30.6019
30.3404
30.0713
29.7957
29.515
29.2307
28.9445
28.6581
28.3737
28.0933
27.8193
27.5538
27.2992
27.0576
26.8312
26.6216
26.43
26.2572
26.1032
25.9672
25.8476
25.7418
25.6466
25.5575
25.4697
25.3779
25.2754
25.1573
25.0169
24.848
24.6438
24.3967
24.0988
23.7417
23.3174
22.8185
22.2396
21.5779
20.8341
20.013
19.1236
18.179
17.1961
16.1942
15.1941
14.2168
13.2817
12.4056
11.6019
10.8799
10.2446
9.69756
9.23707
8.85911
8.5581
8.32761
8.16086
8.0512
7.99235
7.97853
8.00448
8.06545
8.15713
8.27557
8.41719
8.5759
8.74494
8.91734
9.08605
9.24424
9.38595
9.50694
9.60558
9.6835
9.74465
9.79142
9.81643
9.79154
9.66124
9.35189
8.8013
7.99575
6.98908
5.88832
4.81427
3.8619
3.08063
2.47734
2.03166
1.71225
1.48764
1.3314
1.22328
1.14857
1.09688
1.06095
1.03577
1.01788
1.0049
0.995187
0.98763
0.981481
0.976251
0.971627
0.967414
0.963495
0.959805
0.956311
0.952998
0.949863
0.946907
0.944131
0.941539
0.939131
0.936906
0.934863
0.932999
0.931312
0.929798
0.928463
0.927309
0.92634
0.925561
0.924976
0.924589
0.924397
0.924361
0.924456
108.314
67.6803
56.4429
51.9638
49.746
48.3451
47.1645
45.9388
44.5689
43.0532
41.4464
39.8296
38.2857
36.8833
35.6673
34.6586
33.857
33.248
32.8089
32.5133
32.3346
32.2482
32.2322
32.2678
32.3391
32.4333
32.5399
32.6505
32.7586
32.8591
32.9483
33.0233
33.0821
33.1233
33.1461
33.1498
33.1343
33.0996
33.0458
32.9731
32.8818
32.7722
32.6448
32.4998
32.3376
32.1587
31.9633
31.752
31.5253
31.2837
31.0281
30.759
30.477
30.1829
29.8776
29.5623
29.2386
28.9081
28.5728
28.2347
27.8964
27.5602
27.2292
26.9059
26.5936
26.295
26.0131
25.7507
25.5099
25.2925
25.0994
24.9307
24.7858
24.6631
24.5597
24.4715
24.3942
24.3226
24.2506
24.1721
24.0803
23.9681
23.8272
23.6488
23.4227
23.1379
22.7836
22.3491
21.8262
21.2091
20.4966
19.6923
18.8051
17.8494
16.8439
15.811
14.7752
13.7608
12.7907
11.8846
11.0576
10.3199
9.6769
9.12946
8.6749
8.30801
8.02198
7.80923
7.66203
7.57294
7.53506
7.54215
7.58859
7.66934
7.77985
7.91598
8.07407
8.24763
8.42983
8.61372
8.79238
8.95921
9.10844
9.23592
9.33986
9.42129
9.48308
9.52638
9.54345
9.50814
9.37054
9.0653
8.5376
7.77569
6.82797
5.79077
4.77377
3.86466
3.11089
2.52143
2.07985
1.75866
1.52933
1.36727
1.25327
1.17311
1.11657
1.07643
1.04764
1.02668
1.01108
0.999152
0.989714
0.981973
0.975399
0.969643
0.964482
0.959772
0.955426
0.951392
0.947638
0.944146
0.940902
0.937898
0.935125
0.932575
0.930241
0.928112
0.926182
0.924441
0.922885
0.92151
0.920314
0.919296
0.918455
0.917792
0.917306
0.916991
0.916813
0.916752
103.405
64.9876
54.2764
50.0338
48.0021
46.7993
45.8429
44.8622
43.7442
42.4698
41.0773
39.6356
38.2216
36.904
35.7333
34.7389
33.9297
33.2995
32.8318
32.5054
32.2971
32.1843
32.1462
32.1643
32.2229
32.3089
32.4112
32.5213
32.632
32.7378
32.8345
32.9187
32.9881
33.0408
33.0756
33.0916
33.0883
33.0653
33.0225
32.9599
32.8775
32.7755
32.6538
32.5128
32.3525
32.1731
31.9749
31.7581
31.5231
31.2701
30.9998
30.7129
30.4098
30.0916
29.7592
29.414
29.0576
28.6918
28.3188
27.9408
27.5607
27.1814
26.8059
26.4376
26.0801
25.7369
25.4116
25.108
24.8291
24.5773