/*--------------------------------*- C++ -*----------------------------------*\
  =========                 |
  \\      /  F ield         | OpenFOAM: The Open Source CFD Toolbox
   \\    /   O peration     | Website:  https://openfoam.org
    \\  /    A nd           | Version:  9
     \\/     M anipulation  |
\*---------------------------------------------------------------------------*/
FoamFile
{
    format      ascii;
    class       volScalarField;
    location    "0.08";
    object      k;
}
// * * * * * * * * * * * * * * * * * * * * * * * * * * * * * * * * * * * * * //

dimensions      [0 2 -2 0 0 0 0];

internalField   nonuniform List<scalar> 
12225
(
0.266648
0.160641
0.104066
0.0743252
0.0582401
0.0488358
0.0426537
0.0380813
0.0343982
0.0312759
0.0285481
0.0261198
0.0239372
0.021984
0.0203083
0.0192061
0.0204113
0.0493413
0.33546
0.250412
0.196739
0.164724
0.144439
0.130362
0.119686
0.111003
0.103596
0.0970752
0.0912007
0.0858093
0.0807963
0.0761252
0.0718983
0.0688571
0.0712869
0.102949
0.345418
0.285965
0.239628
0.206738
0.183258
0.165884
0.152405
0.141458
0.132241
0.124281
0.117283
0.111053
0.105474
0.100514
0.0963312
0.0939177
0.0980502
0.128719
0.350225
0.304993
0.265443
0.234152
0.209902
0.190947
0.175785
0.163317
0.152807
0.143779
0.135926
0.129051
0.123045
0.117912
0.113894
0.112134
0.117197
0.144431
0.353227
0.316599
0.282523
0.253639
0.229906
0.210507
0.194509
0.181115
0.169724
0.159916
0.151406
0.144012
0.13765
0.132361
0.128455
0.127104
0.13226
0.155129
0.355245
0.324227
0.294458
0.268066
0.245444
0.226282
0.210046
0.196192
0.184269
0.173934
0.164947
0.157154
0.150499
0.145056
0.141168
0.139935
0.14456
0.163006
0.356649
0.329479
0.303079
0.278994
0.257709
0.239173
0.223099
0.20914
0.196972
0.186334
0.177037
0.168962
0.16208
0.156488
0.152529
0.151171
0.154895
0.169257
0.357644
0.333191
0.309427
0.287375
0.267464
0.249752
0.234099
0.220292
0.208108
0.19736
0.187906
0.179663
0.172625
0.166898
0.162806
0.161156
0.163811
0.174594
0.358351
0.335848
0.314142
0.293833
0.275234
0.258427
0.243351
0.229875
0.217853
0.207154
0.197679
0.189374
0.182252
0.176421
0.172167
0.170137
0.171699
0.179456
0.358851
0.337752
0.317645
0.298802
0.281404
0.26551
0.25109
0.238064
0.226335
0.215814
0.206434
0.198166
0.191034
0.18514
0.180727
0.178297
0.178837
0.184106
0.359202
0.339109
0.320232
0.302599
0.286265
0.271245
0.257511
0.245005
0.23366
0.223416
0.214229
0.206086
0.199017
0.193112
0.18857
0.185772
0.185417
0.188691
0.359425
0.339987
0.321963
0.305228
0.289737
0.275456
0.262343
0.250344
0.239406
0.229482
0.220543
0.212585
0.205635
0.199775
0.195161
0.192083
0.191048
0.192885
0.359584
0.340625
0.323261
0.307261
0.292498
0.278891
0.266374
0.25489
0.24439
0.234834
0.226201
0.218488
0.211723
0.20597
0.201351
0.198079
0.196509
0.197207
0.359707
0.341126
0.324314
0.308966
0.294888
0.281949
0.270056
0.259137
0.249141
0.240028
0.231778
0.224388
0.217879
0.212299
0.207733
0.204327
0.202314
0.202057
0.359794
0.341487
0.325102
0.310294
0.296818
0.284502
0.273223
0.262892
0.253443
0.244833
0.237037
0.230046
0.223869
0.218536
0.2141
0.21065
0.208325
0.207341
0.359849
0.341724
0.32564
0.311239
0.298251
0.286473
0.275756
0.265991
0.257097
0.249019
0.241722
0.235186
0.229406
0.224392
0.220168
0.216778
0.214293
0.212829
0.359879
0.341861
0.325967
0.311844
0.299212
0.287854
0.277604
0.268335
0.25995
0.252382
0.24558
0.239511
0.234155
0.229502
0.22555
0.222311
0.219809
0.218093
0.359888
0.341921
0.326131
0.312172
0.299767
0.288694
0.278778
0.269882
0.2619
0.254748
0.248365
0.242704
0.237728
0.233412
0.229733
0.22668
0.224246
0.222441
0.35988
0.341916
0.326152
0.312248
0.29993
0.28898
0.27922
0.270512
0.262743
0.255825
0.249686
0.244269
0.239526
0.23542
0.231915
0.228983
0.226601
0.224756
0.359848
0.341811
0.325945
0.311916
0.299457
0.288361
0.278463
0.26963
0.261757
0.254755
0.248552
0.243086
0.238306
0.234164
0.230621
0.227638
0.225186
0.223243
0.359785
0.341569
0.325435
0.311068
0.298231
0.286744
0.276464
0.267276
0.259081
0.251796
0.245346
0.239667
0.234701
0.230395
0.226703
0.223581
0.220993
0.218911
0.359653
0.341047
0.324348
0.309307
0.29576
0.283581
0.272662
0.262903
0.254213
0.246505
0.239698
0.233719
0.228501
0.22398
0.220102
0.216814
0.214074
0.211851
0.359397
0.340031
0.322297
0.306122
0.291472
0.278294
0.266513
0.256032
0.246752
0.238568
0.231382
0.225104
0.219649
0.214939
0.210907
0.20749
0.204637
0.202311
0.358936
0.33821
0.318781
0.300899
0.284719
0.270279
0.2575
0.246251
0.236393
0.227788
0.220303
0.213817
0.20822
0.203418
0.199325
0.195867
0.192984
0.190633
0.358155
0.335139
0.313123
0.292896
0.274812
0.258923
0.245121
0.233201
0.222918
0.214066
0.206463
0.199948
0.194381
0.189642
0.185631
0.182261
0.179462
0.177186
0.3569
0.330122
0.304325
0.281068
0.26082
0.243515
0.228862
0.216513
0.206115
0.197324
0.189888
0.1836
0.17829
0.173815
0.170059
0.166928
0.164344
0.162254
0.354939
0.321912
0.290699
0.263765
0.241356
0.222985
0.207979
0.195703
0.185644
0.177346
0.170451
0.164708
0.15992
0.155932
0.15262
0.149886
0.147652
0.145862
0.351901
0.307864
0.268967
0.238023
0.214035
0.195494
0.181052
0.169667
0.160595
0.153328
0.147411
0.142567
0.138589
0.135324
0.132652
0.13048
0.128735
0.127364
0.345649
0.280561
0.231693
0.197601
0.173734
0.156675
0.144159
0.134727
0.127464
0.121807
0.117349
0.113792
0.11095
0.108682
0.106883
0.105473
0.104393
0.103598
0.300212
0.214356
0.158189
0.121321
0.0970409
0.0809429
0.0701036
0.0626073
0.0572571
0.0533375
0.0504712
0.0483378
0.0467177
0.0454767
0.0445272
0.0438088
0.0432779
0.042902
0.0568184
0.0919549
0.109686
0.122027
0.130406
0.135614
0.137727
0.133847
0.137801
0.13559
0.134126
0.13439
0.135947
0.13789
0.140405
0.141357
0.136763
0.13922
0.142155
0.143136
0.138371
0.140168
0.152275
0.148018
0.15906
0.172866
0.187906
0.203516
0.219225
0.234704
0.24973
0.264164
0.277927
0.290983
0.303325
0.314966
0.325929
0.336249
0.345962
0.355108
0.363724
0.37185
0.379524
0.386783
0.393663
0.400205
0.406449
0.412444
0.418243
0.423914
0.429543
0.43499
0.440138
0.445008
0.449608
0.453939
0.457994
0.461763
0.465234
0.468393
0.471221
0.473702
0.475816
0.477541
0.478857
0.479741
0.48017
0.480123
0.479577
0.478512
0.476907
0.474744
0.472008
0.468685
0.464766
0.460244
0.455115
0.449383
0.443052
0.436134
0.428645
0.420606
0.412047
0.403009
0.39357
0.383927
0.374956
0.369067
0.364639
0.360313
0.35584
0.351168
0.346297
0.341246
0.336041
0.330709
0.325278
0.319776
0.314225
0.308647
0.303061
0.297479
0.29191
0.28636
0.280829
0.275313
0.269803
0.264285
0.25874
0.253142
0.247453
0.241622
0.235554
0.229073
0.222268
0.215064
0.207219
0.198517
0.188865
0.178261
0.167371
0.165925
0.163762
0.161956
0.162754
0.16385
0.161601
0.153148
0.13762
0.116473
0.0930072
0.0710591
0.0534148
0.0409579
0.0330279
0.0283579
0.0257731
0.0244329
0.0238085
0.0235875
0.0235894
0.0237094
0.0238857
0.0240813
0.024274
0.0244509
0.0246055
0.0247359
0.0248444
0.0249354
0.0249963
0.0250234
0.0250195
0.0249885
0.0249347
0.0248622
0.024775
0.0246764
0.0245693
0.024456
0.0243383
0.0242175
0.0240947
0.0239706
0.023846
0.0237214
0.0235973
0.0234743
0.0233522
0.0232307
0.0231105
0.0229941
0.0228787
0.0227618
0.0226414
0.0225156
0.0223819
0.0222368
0.0220619
0.0218313
0.0833091
0.126858
0.152114
0.167485
0.177034
0.183241
0.187644
0.191308
0.196451
0.203689
0.211872
0.222477
0.236272
0.253534
0.273923
0.296927
0.319058
0.340168
0.35832
0.372858
0.384126
0.391211
0.39721
0.400178
0.403134
0.406378
0.410196
0.414809
0.420367
0.426951
0.434575
0.443188
0.452694
0.462967
0.473864
0.485243
0.496972
0.508935
0.521034
0.533195
0.54536
0.557488
0.569553
0.581535
0.593424
0.605213
0.616899
0.628482
0.639959
0.651334
0.662541
0.673557
0.684519
0.695438
0.706298
0.717079
0.727754
0.73829
0.748653
0.758801
0.76869
0.778272
0.787493
0.796296
0.804621
0.812406
0.819584
0.826088
0.831851
0.836805
0.840882
0.844017
0.846149
0.847219
0.847177
0.845976
0.843579
0.839955
0.835083
0.828953
0.821563
0.812921
0.803047
0.791974
0.779746
0.766418
0.752022
0.737164
0.722421
0.707375
0.691933
0.676112
0.659967
0.643572
0.627005
0.610343
0.593659
0.577023
0.560494
0.544125
0.527961
0.512036
0.496377
0.481
0.465915
0.451123
0.436619
0.422391
0.40842
0.394682
0.381147
0.367776
0.354511
0.341216
0.327351
0.313146
0.298709
0.284132
0.269715
0.255709
0.242141
0.231501
0.226754
0.225579
0.226291
0.226583
0.22268
0.211617
0.192853
0.168036
0.140344
0.113465
0.0903535
0.0724525
0.0597488
0.0513577
0.0461357
0.0430575
0.0413524
0.0404984
0.0401617
0.0401336
0.0402832
0.0405271
0.0408114
0.0411015
0.0413756
0.0416211
0.0418316
0.0420055
0.0421412
0.0422354
0.04229
0.0423091
0.0422974
0.0422597
0.0422009
0.0421253
0.0420366
0.0419383
0.0418329
0.0417225
0.0416087
0.0414928
0.041376
0.0412591
0.0411428
0.0410277
0.0409139
0.0408012
0.0406876
0.0405756
0.0404651
0.0403534
0.0402384
0.0401183
0.0399905
0.0398557
0.0396908
0.0395235
0.124638
0.174186
0.204308
0.223245
0.235907
0.245381
0.253844
0.26314
0.274825
0.288684
0.3056
0.32676
0.351516
0.378836
0.40691
0.433414
0.455965
0.472869
0.483363
0.487936
0.488094
0.485923
0.483464
0.481917
0.482359
0.485263
0.490767
0.498737
0.508887
0.520846
0.534199
0.548528
0.563442
0.578601
0.593733
0.608638
0.623187
0.637313
0.650999
0.664262
0.677148
0.689711
0.702016
0.714122
0.726088
0.737962
0.749787
0.761597
0.773417
0.785267
0.797127
0.809055
0.821062
0.833141
0.84527
0.857421
0.869561
0.88165
0.893645
0.905495
0.917143
0.928527
0.93958
0.95023
0.960399
0.970005
0.978963
0.987185
0.99458
1.00106
1.00653
1.01091
1.01412
1.01606
1.01669
1.01592
1.0137
1.01
1.00477
0.998009
0.989696
0.979842
0.968464
0.955594
0.941269
0.925519
0.908332
0.89012
0.871638
0.852701
0.833279
0.813419
0.793203
0.772728
0.752096
0.731409
0.710762
0.690242
0.669928
0.649886
0.630172
0.610829
0.591889
0.573373
0.555291
0.537646
0.52043
0.50363
0.487225
0.47119
0.455496
0.440106
0.424972
0.410022
0.395088
0.379871
0.36434
0.348357
0.331855
0.314819
0.297443
0.281195
0.268289
0.259698
0.255421
0.253645
0.250591
0.242269
0.226432
0.203382
0.175569
0.146514
0.11958
0.0970809
0.0799531
0.067941
0.0600873
0.0552475
0.0524242
0.0508846
0.0501407
0.0498831
0.0499172
0.0501187
0.0504066
0.0507276
0.0510467
0.051342
0.0516002
0.0518149
0.0519854
0.0521086
0.052186
0.0522213
0.0522196
0.0521863
0.0521267
0.052046
0.0519488
0.0518392
0.0517205
0.0515955
0.0514664
0.051335
0.0512026
0.0510705
0.0509394
0.0508102
0.0506832
0.0505585
0.0504354
0.0503136
0.050194
0.0500751
0.0499557
0.0498352
0.0497129
0.049593
0.0494653
0.0493622
0.169116
0.227227
0.2634
0.286648
0.302989
0.316176
0.328932
0.343323
0.358993
0.377194
0.398549
0.422923
0.449134
0.475213
0.498796
0.517685
0.530417
0.536678
0.537423
0.534585
0.530522
0.527387
0.526692
0.529204
0.535125
0.544254
0.556138
0.570186
0.585781
0.602337
0.619342
0.636372
0.653103
0.669307
0.684844
0.699652
0.713729
0.727119
0.739895
0.75215
0.763983
0.775494
0.786776
0.797912
0.808977
0.820031
0.831124
0.842292
0.85356
0.864941
0.876447
0.88811
0.899934
0.911908
0.924011
0.936216
0.948486
0.96078
0.973051
0.985242
0.997293
1.00913
1.02069
1.03188
1.04263
1.05282
1.06238
1.07119
1.07916
1.08619
1.09216
1.09698
1.10055
1.10278
1.10359
1.1029
1.10064
1.09676
1.09123
1.08401
1.0751
1.0645
1.05222
1.03829
1.02274
1.00558
0.986799
0.966805
0.946311
0.925255
0.903662
0.881607
0.859194
0.836539
0.813759
0.790973
0.768291
0.745813
0.723628
0.701814
0.680433
0.659534
0.639152
0.619309
0.600017
0.581274
0.563073
0.545397
0.528223
0.511527
0.495275
0.479431
0.463948
0.44876
0.433759
0.418726
0.403511
0.38795
0.371858
0.355054
0.337502
0.319787
0.30322
0.289266
0.279114
0.272718
0.267965
0.261195
0.248979
0.229776
0.204445
0.175644
0.146718
0.120666
0.0994358
0.0836576
0.0728413
0.0659023
0.0616835
0.0592466
0.0579352
0.0573238
0.0571437
0.0572232
0.0574502
0.05775
0.0580727
0.0583854
0.0586674
0.0589066
0.0590998
0.059243
0.0593364
0.0593835
0.0593889
0.0593582
0.0592972
0.0592114
0.0591062
0.0589862
0.0588554
0.058717
0.0585739
0.0584281
0.0582815
0.0581352
0.0579905
0.0578483
0.0577091
0.0575732
0.0574406
0.0573107
0.0571842
0.0570605
0.0569392
0.0568207
0.0567062
0.056601
0.0565031
0.0564377
0.216543
0.285727
0.328689
0.356879
0.377202
0.39383
0.409632
0.424606
0.440522
0.458307
0.478022
0.498861
0.51928
0.537374
0.551399
0.560283
0.563987
0.56355
0.560823
0.557957
0.556861
0.558817
0.56438
0.573496
0.585726
0.600438
0.61694
0.634565
0.652722
0.670924
0.688788
0.706036
0.722485
0.738037
0.752661
0.766381
0.779263
0.791399
0.802897
0.813871
0.824435
0.834698
0.844758
0.854702
0.864607
0.874533
0.884532
0.894639
0.904882
0.915273
0.925837
0.9366
0.947569
0.958734
0.970078
0.981575
0.993191
1.00489
1.01661
1.02831
1.03993
1.05139
1.06261
1.07351
1.08401
1.094
1.10338
1.11205
1.11989
1.1268
1.13266
1.13737
1.14082
1.14291
1.14354
1.14265
1.14014
1.13598
1.1301
1.12248
1.11312
1.10199
1.08912
1.07453
1.05824
1.04026
1.02059
0.999704
0.978191
0.956049
0.933339
0.910162
0.886636
0.862891
0.839059
0.815269
0.791642
0.768291
0.745312
0.722792
0.700797
0.679382
0.658584
0.638424
0.618913
0.60005
0.581821
0.564207
0.547184
0.530721
0.514785
0.499335
0.484323
0.469684
0.45532
0.441058
0.42671
0.412117
0.39708
0.381374
0.364841
0.347643
0.330428
0.314251
0.300405
0.289807
0.281978
0.27461
0.264409
0.248723
0.226779
0.199886
0.170786
0.142665
0.118221
0.0989935
0.0851687
0.075942
0.0701281
0.0666297
0.0646258
0.0635665
0.0630995
0.0629997
0.06312
0.0633621
0.0636592
0.0639667
0.0642551
0.0645061
0.0647126
0.0648688
0.0649734
0.0650288
0.0650394
0.0650104
0.0649479
0.0648578
0.0647457
0.0646167
0.0644753
0.0643255
0.0641702
0.064012
0.0638529
0.0636946
0.0635383
0.0633849
0.0632354
0.0630902
0.0629495
0.0628131
0.0626814
0.0625545
0.0624324
0.0623164
0.0622085
0.0621143
0.0620343
0.061987
0.26535
0.345056
0.395987
0.429949
0.454379
0.473301
0.487832
0.50056
0.513101
0.526197
0.539745
0.552935
0.564551
0.573405
0.578786
0.580763
0.580239
0.578725
0.577938
0.579364
0.583962
0.592076
0.603523
0.617785
0.634191
0.65205
0.670721
0.689657
0.708411
0.726643
0.744105
0.760638
0.776155
0.790633
0.804096
0.816606
0.828251
0.839135
0.849374
0.859081
0.868371
0.877348
0.886111
0.894744
0.903325
0.911915
0.920567
0.929321
0.938206
0.947242
0.956454
0.965872
0.975505
0.98535
0.995394
1.00561
1.01598
1.02647
1.03702
1.04758
1.0581
1.06852
1.07874
1.0887
1.0983
1.10745
1.11604
1.12397
1.13113
1.13739
1.14266
1.14682
1.14975
1.15136
1.15155
1.15022
1.14732
1.14276
1.13651
1.12853
1.1188
1.10731
1.09408
1.07912
1.06245
1.04408
1.02402
1.00285
0.980979
0.958443
0.935329
0.911752
0.887844
0.863746
0.839599
0.815544
0.791709
0.768217
0.745173
0.722668
0.700776
0.679553
0.659039
0.639254
0.620208
0.601896
0.5843
0.567398
0.551159
0.535549
0.520529
0.506053
0.492071
0.478512
0.465282
0.452228
0.439145
0.42588
0.412235
0.397977
0.382898
0.366957
0.350419
0.333921
0.318482
0.305212
0.294562
0.28555
0.275764
0.262374
0.243523
0.219191
0.191161
0.162336
0.135773
0.113736
0.0971382
0.0856178
0.0781098
0.0734392
0.0706481
0.0690651
0.0682508
0.0679226
0.0678957
0.0680464
0.0682905
0.0685703
0.0688474
0.0690964
0.0693054
0.0694661
0.0695755
0.0696347
0.0696471
0.0696178
0.0695527
0.0694578
0.069339
0.0692017
0.0690509
0.0688907
0.0687247
0.0685557
0.0683859
0.0682171
0.0680509
0.0678882
0.0677301
0.0675771
0.0674298
0.0672882
0.0671526
0.0670234
0.0669011
0.0667874
0.0666843
0.066597
0.0665263
0.0664862
0.311893
0.402312
0.461282
0.500871
0.52784
0.54556
0.55759
0.566344
0.573429
0.579711
0.585376
0.590118
0.593439
0.595026
0.595022
0.594126
0.593453
0.594245
0.597554
0.604021
0.613805
0.626651
0.642038
0.659321
0.677849
0.697023
0.716336
0.735377
0.753826
0.771454
0.788106
0.803693
0.818182
0.831583
0.843942
0.855334
0.865848
0.875587
0.884659
0.893174
0.901237
0.908948
0.9164
0.923676
0.930852
0.937991
0.945147
0.952364
0.959677
0.967111
0.974693
0.982455
0.990411
0.998564
1.00691
1.01543
1.0241
1.0329
1.04178
1.05071
1.05962
1.06846
1.07716
1.08565
1.09383
1.10162
1.10893
1.11564
1.12165
1.12685
1.13113
1.13437
1.13648
1.13733
1.13684
1.13491
1.13147
1.12646
1.11981
1.11149
1.10149
1.08978
1.07637
1.06128
1.04452
1.0261
1.00604
0.98503
0.963275
0.940838
0.917823
0.894357
0.870582
0.846646
0.8227
0.798891
0.775358
0.75223
0.729622
0.70763
0.686335
0.665795
0.646051
0.627124
0.609021
0.591731
0.575234
0.5595
0.544492
0.53017
0.516487
0.503392
0.490826
0.478716
0.466962
0.455421
0.443882
0.432192
0.420153
0.407531
0.394096
0.379705
0.364412
0.348562
0.332875
0.318341
0.305767
0.295065
0.284798
0.272544
0.256006
0.234166
0.207811
0.179273
0.151607
0.127534
0.108599
0.0949478
0.0857562
0.0798643
0.0762247
0.0740607
0.0728492
0.0722495
0.072038
0.0720651
0.0722284
0.0724572
0.0727034
0.072935
0.0731335
0.0732885
0.0733945
0.073451
0.0734604
0.0734273
0.0733571
0.0732559
0.0731296
0.0729839
0.0728239
0.0726541
0.0724782
0.0722994
0.0721201
0.0719423
0.0717675
0.0715969
0.0714316
0.0712724
0.0711197
0.070974
0.0708354
0.0707045
0.0705822
0.07047
0.07037
0.0702864
0.0702194
0.0701802
0.353842
0.453469
0.519337
0.562061
0.589283
0.605928
0.615274
0.619723
0.621063
0.620536
0.618896
0.616548
0.613768
0.610927
0.608628
0.607669
0.60889
0.612966
0.620258
0.630765
0.644175
0.659973
0.677549
0.69629
0.715635
0.735104
0.754304
0.772927
0.790744
0.807595
0.823381
0.838049
0.851593
0.864037
0.875432
0.88585
0.895377
0.904105
0.912133
0.91956
0.926483
0.932994
0.939179
0.945119
0.950886
0.956543
0.962147
0.967745
0.973376
0.97907
0.984859
0.990775
0.996836
1.00305
1.00943
1.01595
1.02261
1.02938
1.03624
1.04315
1.05006
1.05693
1.0637
1.0703
1.07666
1.08269
1.08831
1.09342
1.09793
1.10172
1.10469
1.10674
1.10775
1.10764
1.10629
1.10362
1.09956
1.09403
1.08698
1.07836
1.06816
1.05635
1.04293
1.0279
1.01128
0.993074
0.97338
0.952858
0.931563
0.909581
0.887027
0.864034
0.84075
0.81733
0.793931
0.770708
0.747811
0.725376
0.703527
0.68237
0.661989
0.642448
0.623789
0.606033
0.589183
0.573225
0.558131
0.543865
0.530383
0.517633
0.505562
0.49411
0.483209
0.472779
0.462715
0.452874
0.44305
0.43308
0.422767
0.411874
0.40016
0.387429
0.373618
0.358885
0.343712
0.328897
0.315304
0.303323
0.292291
0.280397
0.265367
0.245603
0.22106
0.193403
0.16544
0.140085
0.119347
0.103855
0.0930916
0.0859941
0.0814817
0.0787004
0.0770538
0.0761462
0.0757165
0.0755893
0.0756443
0.075798
0.0759926
0.0761888
0.0763626
0.0764998
0.0765926
0.0766384
0.0766385
0.0765966
0.0765177
0.0764075
0.076272
0.0761168
0.0759472
0.0757677
0.0755824
0.0753945
0.0752065
0.0750206
0.0748384
0.0746612
0.0744899
0.0743255
0.0741686
0.0740195
0.0738786
0.0737464
0.073624
0.0735127
0.0734144
0.0733319
0.073265
0.0732234
0.389326
0.49443
0.563264
0.607957
0.636076
0.652174
0.659442
0.660369
0.657023
0.651114
0.644015
0.636812
0.630391
0.625534
0.622953
0.623249
0.626831
0.633839
0.644134
0.657344
0.672941
0.690334
0.708932
0.728195
0.747654
0.766923
0.785692
0.803723
0.820846
0.836941
0.851938
0.865807
0.878549
0.890193
0.900786
0.910393
0.919089
0.926956
0.934082
0.940553
0.946456
0.951875
0.956888
0.961572
0.965993
0.970215
0.974294
0.978278
0.982212
0.986132
0.990068
0.994057
0.998121
1.00228
1.00653
1.01088
1.01533
1.01987
1.02447
1.02911
1.03376
1.03838
1.04293
1.04735
1.05158
1.05555
1.05919
1.06242
1.06514
1.06726
1.06869
1.06932
1.06906
1.06781
1.06548
1.06198
1.05722
1.05115
1.04371
1.03484
1.02452
1.01273
0.999438
0.984653
0.96837
0.950579
0.931594
0.911783
0.891195
0.869921
0.848077
0.825799
0.803238
0.780553
0.757909
0.735469
0.713393
0.691829
0.670912
0.650756
0.631454
0.613076
0.595666
0.579246
0.563816
0.549355
0.53583
0.523195
0.511396
0.500371
0.490058
0.480385
0.471275
0.462639
0.454366
0.446309
0.43827
0.430074
0.42152
0.412372
0.402379
0.39132
0.379062
0.365648
0.351388
0.336901
0.322983
0.310236
0.298509
0.286572
0.272425
0.254239
0.231377
0.204884
0.17719
0.151199
0.129206
0.112237
0.100092
0.0918636
0.0864923
0.0830801
0.0809738
0.07973
0.0790531
0.0787435
0.0786638
0.0787183
0.0788398
0.0789822
0.0791152
0.0792213
0.0792894
0.0793152
0.0792984
0.0792416
0.0791492
0.0790265
0.0788792
0.0787127
0.0785324
0.0783428
0.0781479
0.0779511
0.077755
0.0775617
0.0773729
0.0771898
0.0770136
0.0768449
0.0766846
0.0765329
0.0763902
0.076257
0.0761344
0.0760234
0.0759254
0.0758425
0.0757738
0.0757277
0.411469
0.519611
0.591501
0.638454
0.667839
0.684075
0.690311
0.689133
0.682866
0.673629
0.663306
0.653496
0.64548
0.64022
0.638361
0.640235
0.645871
0.655037
0.667304
0.682117
0.698877
0.716996
0.735933
0.755217
0.774453
0.793319
0.811565
0.828999
0.845481
0.86092
0.875261
0.88848
0.900582
0.911591
0.921549
0.93051
0.938539
0.945707
0.952086
0.957753
0.962784
0.967252
0.971229
0.974784
0.977978
0.980873
0.983523
0.985978
0.988282
0.990476
0.992594
0.994672
0.996737
0.99881
1.00091
1.00303
1.00519
1.00739
1.00961
1.01185
1.01409
1.0163
1.01845
1.02051
1.02242
1.02414
1.02561
1.02676
1.02751
1.02779
1.02751
1.02658
1.02491
1.02243
1.01902
1.01463
1.00916
1.00256
0.99475
0.985694
0.975347
0.963677
0.950659
0.936274
0.920511
0.90337
0.8853
0.866381
0.846679
0.826282
0.805307
0.783887
0.762174
0.740332
0.718531
0.696947
0.675751
0.655106
0.635159
0.616038
0.597847
0.580664
0.564537
0.549489
0.535516
0.522593
0.510678
0.499715
0.489639
0.480376
0.471852
0.463984
0.456684
0.449853
0.443373
0.437093
0.43082
0.424372
0.417539
0.410084
0.401752
0.392307
0.381578
0.369535
0.356369
0.342553
0.328783
0.315716
0.303508
0.291391
0.277719
0.260667
0.239245
0.213989
0.186926
0.160808
0.138061
0.12
0.106714
0.0974791
0.0912979
0.0872637
0.0846871
0.0830876
0.0821399
0.0816231
0.0813844
0.0813165
0.0813436
0.0814129
0.0814886
0.0815491
0.0815803
0.0815757
0.0815333
0.0814547
0.0813432
0.0812036
0.0810411
0.080861
0.0806683
0.0804675
0.0802626
0.0800567
0.0798527
0.0796524
0.0794576
0.0792694
0.0790889
0.0789168
0.0787538
0.0786001
0.078456
0.078322
0.0781991
0.0780879
0.0779896
0.0779052
0.0778335
0.0777822
0.422749
0.53263
0.606371
0.655046
0.685793
0.702831
0.709202
0.707513
0.700238
0.689759
0.678287
0.667729
0.659578
0.654847
0.654074
0.657376
0.664537
0.675117
0.688543
0.704195
0.721468
0.739802
0.758709
0.777773
0.796652
0.81507
0.832813
0.849718
0.865667
0.88058
0.89441
0.907136
0.918758
0.929297
0.938784
0.947265
0.954791
0.961422
0.967219
0.972246
0.976568
0.98025
0.983354
0.98594
0.988067
0.989789
0.991158
0.992222
0.993027
0.993614
0.994021
0.994284
0.994432
0.99449
0.994479
0.994416
0.994312
0.994178
0.994017
0.993831
0.993614
0.993357
0.993045
0.992657
0.992166
0.991537
0.99073
0.989694
0.988376
0.986711
0.984632
0.982065
0.978934
0.975159
0.970662
0.965366
0.959197
0.952089
0.943979
0.934811
0.924536
0.913112
0.900499
0.886659
0.871558
0.855378
0.838323
0.820417
0.801717
0.782304
0.762283
0.741785
0.720959
0.699973
0.679007
0.658249
0.637884
0.618095
0.599046
0.580883
0.563724
0.547657
0.532737
0.518988
0.506404
0.494955
0.484587
0.475235
0.46682
0.459257
0.452458
0.446327
0.440766
0.435665
0.430898
0.426312
0.421716
0.41692
0.41171
0.405842
0.399062
0.391124
0.381838
0.371127
0.359104
0.34613
0.332796
0.319746
0.307297
0.295012
0.281586
0.265331
0.24509
0.221031
0.194802
0.168935
0.145863
0.127083
0.11292
0.102834
0.0959202
0.0912936
0.0882499
0.086284
0.085048
0.0843032
0.0838835
0.0836715
0.0835837
0.0835609
0.0835625
0.0835624
0.0835439
0.0834978
0.0834206
0.0833124
0.0831755
0.083014
0.0828325
0.0826359
0.0824288
0.0822155
0.0819997
0.0817845
0.0815724
0.0813654
0.081165
0.0809723
0.0807881
0.0806132
0.080448
0.0802929
0.0801478
0.0800132
0.0798899
0.0797784
0.0796791
0.0795928
0.0795178
0.0794612
0.426009
0.535712
0.610049
0.659859
0.692
0.710428
0.718006
0.717264
0.710687
0.700748
0.689793
0.679862
0.672529
0.668809
0.669167
0.673606
0.681794
0.693204
0.707219
0.723216
0.740608
0.758874
0.777568
0.796316
0.814812
0.832811
0.850121
0.866599
0.882136
0.89666
0.910124
0.922506
0.933802
0.944024
0.953197
0.961353
0.968535
0.974789
0.980167
0.984721
0.988504
0.991573
0.993979
0.995777
0.997016
0.997746
0.998014
0.997866
0.997345
0.996493
0.995348
0.993948
0.992323
0.990502
0.988511
0.986372
0.984106
0.981732
0.979265
0.976717
0.974098
0.971413
0.968665
0.965849
0.962957
0.959975
0.956881
0.953648
0.950239
0.946613
0.94272
0.938502
0.933899
0.928844
0.923269
0.917106
0.910284
0.902739
0.894404
0.885221
0.87513
0.864075
0.851999
0.838844
0.824638
0.80956
0.79361
0.776804
0.75918
0.740804
0.721768
0.702193
0.682226
0.662039
0.641822
0.621778
0.602114
0.583034
0.564726
0.547357
0.531065
0.515951
0.502078
0.489473
0.478128
0.468005
0.459042
0.45116
0.444266
0.438264
0.433049
0.428515
0.424551
0.421039
0.417843
0.414808
0.411744
0.408456
0.40472
0.400292
0.394917
0.388345
0.380377
0.370906
0.359993
0.347917
0.335179
0.322376
0.309896
0.297522
0.28424
0.268551
0.249266
0.226312
0.201017
0.175669
0.152621
0.133459
0.118683
0.107918
0.10037
0.0951972
0.091702
0.0893679
0.0878321
0.0868426
0.0862229
0.0858471
0.085625
0.085492
0.0854026
0.0853271
0.0852457
0.0851469
0.0850252
0.0848793
0.0847105
0.0845218
0.0843172
0.0841008
0.083877
0.0836496
0.0834218
0.0831967
0.0829764
0.0827628
0.082557
0.0823602
0.0821729
0.0819957
0.0818289
0.0816728
0.0815271
0.0813922
0.0812687
0.0811567
0.0810564
0.0809681
0.0808899
0.0808283
0.422751
0.530846
0.604813
0.655296
0.688852
0.70914
0.718788
0.720153
0.715606
0.707556
0.698327
0.68996
0.68403
0.681549
0.682962
0.68825
0.69707
0.708891
0.723112
0.739137
0.756414
0.774457
0.792853
0.81126
0.829395
0.847033
0.863998
0.880154
0.895398
0.909659
0.922891
0.935066
0.946174
0.95622
0.965218
0.973194
0.980177
0.986205
0.991318
0.995556
0.998966
1.00159
1.00348
1.00467
1.0052
1.00513
1.0045
1.00333
1.00168
0.999585
0.99708
0.994206
0.990993
0.987473
0.983677
0.979632
0.975367
0.970908
0.96628
0.961508
0.956614
0.951619
0.946539
0.941391
0.936184
0.930924
0.925612
0.920241
0.914798
0.909261
0.903602
0.897783
0.89176
0.885482
0.878893
0.871933
0.864538
0.856644
0.848185
0.839094
0.829301
0.818738
0.807328
0.795025
0.781932
0.768008
0.753226
0.737575
0.721068
0.703746
0.685683
0.666988
0.647804
0.628307
0.6087
0.589205
0.570055
0.55148
0.5337
0.516908
0.501264
0.486885
0.473846
0.462177
0.451866
0.442869
0.435112
0.428503
0.422937
0.4183
0.414477
0.411348
0.408792
0.406679
0.404869
0.403201
0.401489
0.399527
0.397088
0.393925
0.389782
0.384413
0.377611
0.369257
0.359374
0.348183
0.336111
0.323697
0.311348
0.298985
0.285821
0.270558
0.252056
0.230105
0.205783
0.181137
0.158388
0.139135
0.123991
0.112725
0.104652
0.0989921
0.0950712
0.0923746
0.0905331
0.0892867
0.0884511
0.0878941
0.08752
0.0872596
0.0870633
0.0868978
0.0867406
0.0865777
0.0864018
0.0862101
0.0860025
0.0857812
0.0855491
0.0853097
0.0850667
0.0848234
0.0845827
0.084347
0.0841182
0.0838979
0.0836871
0.0834865
0.0832965
0.0831175
0.0829497
0.082793
0.0826471
0.0825123
0.0823887
0.0822764
0.0821753
0.0820851
0.0820043
0.0819384
0.414285
0.519897
0.592871
0.643732
0.678726
0.70121
0.713538
0.717828
0.716238
0.710998
0.704296
0.698084
0.693898
0.692749
0.695112
0.701016
0.710172
0.722106
0.73627
0.752113
0.769123
0.786849
0.804907
0.822972
0.840781
0.85812
0.874818
0.890745
0.905799
0.919907
0.933019
0.945102
0.95614
0.966129
0.975076
0.982996
0.989909
0.995843
1.00083
1.00489
1.00808
1.01042
1.01195
1.0127
1.01272
1.01203
1.01068
1.0087
1.00612
1.00298
0.999326
0.995182
0.990588
0.985576
0.980179
0.974433
0.96837
0.962024
0.95543
0.948622
0.941636
0.934504
0.927262
0.919939
0.912567
0.90517
0.897772
0.890388
0.883027
0.875691
0.868372
0.861054
0.85371
0.846308
0.838804
0.831148
0.823282
0.815146
0.806669
0.797783
0.788399
0.778441
0.767845
0.756613
0.74467
0.731944
0.718372
0.703906
0.688528
0.672248
0.655116
0.637228
0.61872
0.599774
0.580608
0.561468
0.542617
0.52432
0.50683
0.490373
0.475135
0.461254
0.448815
0.43785
0.428347
0.42025
0.413474
0.407914
0.403449
0.399954
0.397299
0.395354
0.393987
0.39306
0.392427
0.39192
0.391355
0.39052
0.389182
0.387094
0.384
0.379657
0.373859
0.366479
0.357521
0.347162
0.335768
0.323822
0.311721
0.299465
0.286438
0.271526
0.253685
0.232648
0.209306
0.185485
0.163247
0.144145
0.128854
0.117256
0.10877
0.102689
0.098376
0.0953291
0.0931813
0.0916696
0.0906055
0.0898523
0.0893103
0.0889066
0.0885884
0.0883191
0.0880735
0.0878356
0.087596
0.0873504
0.0870975
0.0868381
0.0865742
0.0863086
0.0860439
0.085783
0.0855281
0.0852812
0.0850437
0.0848167
0.084601
0.084397
0.0842048
0.0840246
0.0838562
0.0836994
0.0835538
0.0834194
0.0832961
0.0831838
0.0830822
0.0829907
0.0829079
0.0828386
0.401745
0.504486
0.576171
0.627278
0.66375
0.688647
0.70404
0.711762
0.713698
0.711829
0.708132
0.704418
0.702157
0.702364
0.705577
0.711915
0.721188
0.733015
0.746924
0.762425
0.779052
0.796387
0.814068
0.831788
0.849292
0.866373
0.882862
0.898629
0.913569
0.927608
0.940687
0.952769
0.96383
0.973858
0.982851
0.990816
0.997764
1.00371
1.00869
1.0127
1.01579
1.01798
1.0193
1.01977
1.01943
1.01829
1.01641
1.01379
1.01048
1.00651
1.0019
0.996694
0.990929
0.984639
0.977862
0.970634
0.962995
0.954985
0.946648
0.938026
0.929165
0.920113
0.910917
0.901625
0.892285
0.882942
0.873639
0.864416
0.855303
0.846325
0.837497
0.828822
0.820295
0.8119
0.803607
0.795375
0.787156
0.778891
0.770503
0.761929
0.753048
0.74385
0.734233
0.724095
0.71333
0.701826
0.689481
0.676208
0.661946
0.646672
0.63041
0.613234
0.595279
0.576732
0.557827
0.538841
0.520072
0.501825
0.484393
0.468038
0.452976
0.439365
0.427301
0.416818
0.407899
0.400478
0.394457
0.389716
0.386122
0.383536
0.381818
0.380826
0.380421
0.380458
0.380782
0.381224
0.381596
0.381683
0.381247
0.38004
0.377809
0.374315
0.369356
0.362806
0.354654
0.34505
0.334313
0.322874
0.3111
0.299034
0.286181
0.271592
0.254337
0.234146
0.211779
0.188868
0.1673
0.148544
0.133296
0.121519
0.112729
0.106296
0.101628
0.0982482
0.0957978
0.0940161
0.0927136
0.0917517
0.091028
0.0904669
0.0900129
0.0896267
0.089281
0.0889576
0.0886453
0.0883382
0.0880335
0.0877308
0.0874311
0.087136
0.0868475
0.0865673
0.0862972
0.0860384
0.085792
0.0855584
0.0853381
0.085131
0.0849371
0.0847561
0.0845877
0.0844312
0.0842864
0.0841528
0.0840304
0.0839186
0.0838168
0.0837247
0.0836407
0.0835689
0.385369
0.485298
0.555691
0.607101
0.645182
0.672713
0.691479
0.703012
0.708886