/*--------------------------------*- C++ -*----------------------------------*\
  =========                 |
  \\      /  F ield         | OpenFOAM: The Open Source CFD Toolbox
   \\    /   O peration     | Website:  https://openfoam.org
    \\  /    A nd           | Version:  9
     \\/     M anipulation  |
\*---------------------------------------------------------------------------*/
FoamFile
{
    format      ascii;
    class       volScalarField;
    location    "0.08";
    object      nut;
}
// * * * * * * * * * * * * * * * * * * * * * * * * * * * * * * * * * * * * * //

dimensions      [0 2 -1 0 0 0 0];

internalField   nonuniform List<scalar> 
12225
(
3.04956e-05
1.83722e-05
1.19024e-05
8.50154e-06
6.66241e-06
5.58731e-06
4.88074e-06
4.35828e-06
3.93756e-06
3.58098e-06
3.26947e-06
2.99216e-06
2.74279e-06
2.51936e-06
2.32695e-06
2.19741e-06
2.31853e-06
5.446e-06
0.000163161
0.000102357
8.24772e-05
7.33095e-05
6.81394e-05
6.45287e-05
6.14455e-05
5.85538e-05
5.5792e-05
5.31642e-05
5.06762e-05
4.83354e-05
4.61661e-05
4.42328e-05
4.27e-05
4.20489e-05
4.32238e-05
4.57078e-05
0.000339113
0.000220962
0.000179132
0.000158018
0.000145225
0.000136295
0.000129155
0.000122876
0.000117095
0.000111684
0.0001066
0.000101851
9.75003e-05
9.36997e-05
9.07708e-05
8.93331e-05
8.89652e-05
8.75039e-05
0.000503383
0.000350028
0.000285615
0.000250641
0.000228568
0.00021302
0.000200902
0.000190646
0.000181482
0.000173037
0.000165139
0.000157733
0.000150872
0.000144739
0.000139689
0.000136066
0.00013207
0.000125263
0.000628599
0.000471754
0.00039199
0.000344919
0.000313868
0.000291549
0.000274198
0.000259756
0.000247091
0.000235578
0.000224879
0.000214839
0.000205451
0.000196862
0.000189338
0.00018278
0.000174504
0.000162106
0.000714101
0.000575812
0.000490985
0.000436025
0.000397823
0.000369543
0.000347315
0.000328854
0.0003128
0.000298337
0.000284977
0.000272456
0.000260683
0.00024972
0.000239657
0.000229955
0.000217511
0.00020001
0.00076883
0.000658337
0.000577695
0.000520031
0.000477501
0.000444841
0.000418646
0.000396719
0.000377648
0.000360523
0.000344763
0.000330014
0.000316101
0.000302974
0.000290522
0.000277849
0.000261776
0.000240064
0.000802467
0.000719953
0.000649615
0.000594078
0.000550407
0.00051542
0.000486595
0.000462097
0.000440639
0.000421332
0.000403569
0.00038695
0.00037123
0.000356253
0.000341724
0.000326517
0.000307595
0.000282788
0.000822605
0.000763731
0.00070637
0.000656542
0.000614673
0.000579538
0.000549654
0.000523725
0.000500728
0.000479896
0.000460667
0.000442642
0.000425541
0.000409126
0.000392964
0.000375826
0.000354955
0.000328273
0.000834459
0.000793581
0.000749164
0.000707027
0.000669207
0.000635888
0.000606532
0.000580419
0.000556867
0.000535301
0.000515263
0.0004964
0.000478433
0.000461078
0.000443827
0.00042546
0.000403574
0.000376229
0.000841363
0.00081325
0.000780118
0.000746172
0.000713733
0.000683723
0.00065628
0.000631184
0.000608092
0.000586649
0.000566536
0.000547479
0.000529232
0.000511505
0.000493776
0.000474919
0.000452914
0.000426021
0.000845033
0.000824799
0.00079987
0.000772873
0.000745744
0.000719568
0.000694811
0.000671568
0.000649749
0.000629185
0.000609687
0.00059107
0.000573136
0.000555619
0.000538029
0.000519367
0.00049795
0.000472236
0.000847294
0.000832465
0.000813896
0.000792955
0.000770983
0.000748943
0.000727405
0.000706642
0.000686746
0.000667701
0.000649438
0.000631857
0.000614825
0.000598122
0.000581323
0.000563599
0.000543614
0.000520081
0.000848784
0.000837861
0.000824435
0.000808964
0.000792154
0.000774661
0.000756986
0.000739453
0.000722255
0.000705485
0.000689177
0.000673316
0.000657835
0.00064258
0.00062722
0.000611123
0.0005933
0.000572751
0.000849686
0.000841314
0.000831617
0.000820557
0.000808349
0.000795308
0.000781746
0.000767926
0.000754045
0.000740243
0.00072661
0.000713193
0.000699987
0.000686904
0.000673721
0.000660007
0.000645091
0.000628273
0.000850181
0.000843305
0.000836002
0.00082807
0.000819457
0.000810224
0.000800489
0.000790391
0.000780063
0.000769626
0.000759177
0.000748785
0.00073848
0.00072823
0.00071791
0.000707261
0.000695881
0.000683338
0.000850424
0.00084432
0.000838357
0.000832337
0.000826131
0.000819679
0.000812972
0.000806044
0.000798952
0.000791762
0.000784541
0.000777347
0.000770217
0.000763148
0.000756084
0.000748891
0.000741359
0.000733254
0.000850517
0.000844737
0.00083938
0.0008343
0.000829379
0.000824537
0.000819729
0.000814944
0.000810192
0.000805502
0.000800909
0.000796449
0.000792148
0.000788014
0.000784022
0.000780112
0.000776184
0.000772117
0.000850504
0.000844714
0.000839382
0.00083439
0.00082966
0.000825147
0.000820839
0.000816745
0.000812889
0.000809304
0.000806023
0.000803077
0.000800487
0.00079826
0.000796387
0.000794837
0.000793554
0.000792454
0.000850307
0.000843947
0.000837691
0.000831464
0.000825285
0.000819234
0.000813419
0.000807948
0.000802916
0.0007984
0.000794459
0.000791128
0.000788424
0.000786348
0.00078488
0.000783985
0.000783602
0.000783635
0.000849757
0.000841819
0.000833165
0.000823959
0.000814527
0.000805221
0.000796344
0.000788126
0.000780721
0.000774224
0.00076868
0.000764099
0.000760467
0.00075775
0.0007559
0.000754853
0.000754529
0.000754801
0.000848249
0.000836314
0.000822239
0.000807068
0.000791834
0.000777298
0.00076394
0.000752014
0.000741618
0.000732757
0.000725381
0.000719408
0.000714744
0.000711288
0.000708936
0.000707584
0.000707115
0.000707368
0.000844345
0.000823369
0.00079889
0.00077399
0.00075063
0.000729697
0.000711508
0.000696023
0.000683057
0.000672372
0.000663726
0.000656891
0.000651659
0.000647847
0.000645291
0.000643842
0.000643354
0.000643638
0.00083473
0.000795748
0.000754755
0.000717274
0.000685182
0.000658672
0.000637074
0.000619577
0.000605509
0.000594303
0.000585496
0.00057871
0.000573641
0.000570041
0.000567706
0.000566463
0.000566151
0.000566575
0.000812228
0.00074253
0.000681095
0.000632099
0.000594148
0.000565015
0.000542759
0.000525738
0.000512552
0.000502369
0.000494575
0.000488717
0.000484449
0.000481507
0.000479684
0.000478814
0.000478749
0.000479311
0.000762858
0.0006513
0.000573081
0.000519236
0.000481413
0.000454328
0.000434642
0.000420244
0.000409655
0.000401672
0.000395681
0.000391252
0.000388076
0.000385929
0.000384641
0.000384082
0.000384139
0.000384676
0.00066404
0.000515235
0.000434909
0.000386759
0.000355696
0.000334779
0.000320246
0.000309918
0.000302574
0.000297225
0.00029321
0.000290215
0.000288031
0.000286513
0.000285556
0.000285081
0.000285022
0.000285296
0.000492868
0.000344204
0.000281956
0.00024841
0.000228175
0.000215286
0.00020668
0.000200668
0.000196353
0.000193297
0.000190904
0.000189008
0.000187517
0.000186375
0.000185541
0.000184984
0.000184677
0.000184583
0.000262122
0.000171159
0.000137769
0.000120562
0.000110644
0.000104644
0.000100745
9.79879e-05
9.59205e-05
9.43666e-05
9.3111e-05
9.20303e-05
9.11216e-05
9.03782e-05
8.97906e-05
8.93474e-05
8.90374e-05
8.88487e-05
5.96531e-05
4.2593e-05
3.14318e-05
2.41054e-05
1.92798e-05
1.608e-05
1.3925e-05
1.24343e-05
1.13698e-05
1.05892e-05
1.0017e-05
9.59103e-06
9.2672e-06
9.01875e-06
8.82822e-06
8.68359e-06
8.57615e-06
8.49945e-06
1.73672e-05
0.000129048
0.000154236
0.000171905
0.000184132
0.000191887
0.00019407
4.3029e-05
0.000193153
0.000194644
0.000192408
0.000192377
0.000194731
0.000198911
0.000203789
0.000208032
4.33467e-05
4.28031e-05
4.31543e-05
4.3364e-05
4.42433e-05
4.4732e-05
0.000229186
4.74171e-05
4.87425e-05
5.07398e-05
5.28506e-05
5.49574e-05
5.69986e-05
5.89394e-05
6.07622e-05
6.24607e-05
6.40354e-05
6.54909e-05
6.6834e-05
6.80727e-05
6.92152e-05
7.02697e-05
7.12438e-05
7.21448e-05
7.29794e-05
7.37537e-05
7.44733e-05
7.51434e-05
7.57687e-05
7.63541e-05
7.69043e-05
7.74241e-05
7.7919e-05
7.83953e-05
7.88604e-05
7.93149e-05
7.97379e-05
8.01321e-05
8.0499e-05
8.08395e-05
8.11535e-05
8.14407e-05
8.17004e-05
8.19317e-05
8.21338e-05
8.23053e-05
8.24449e-05
8.25512e-05
8.26226e-05
8.26573e-05
8.26538e-05
8.261e-05
8.25243e-05
8.23947e-05
8.22194e-05
8.19966e-05
8.17245e-05
8.14015e-05
8.10262e-05
8.05973e-05
8.01135e-05
7.95741e-05
7.89783e-05
7.83259e-05
7.76168e-05
7.68513e-05
7.60301e-05
7.51547e-05
7.42273e-05
7.32497e-05
7.22446e-05
7.14818e-05
7.09741e-05
7.04927e-05
6.9999e-05
6.9484e-05
6.89463e-05
6.83871e-05
6.78086e-05
6.72133e-05
6.66039e-05
6.59831e-05
6.53533e-05
6.47168e-05
6.40756e-05
6.34312e-05
6.27848e-05
6.21371e-05
6.14885e-05
6.08386e-05
6.01868e-05
5.9532e-05
5.88722e-05
5.82055e-05
5.75287e-05
5.68383e-05
5.61324e-05
5.53916e-05
5.45763e-05
5.37399e-05
5.28454e-05
5.18597e-05
5.07486e-05
4.95103e-05
4.78515e-05
0.00020031
0.000197699
0.000195104
0.000193641
0.000194225
0.000192759
0.000184993
0.000168844
0.000145129
0.000117257
8.99192e-05
6.70909e-05
5.05339e-05
3.98165e-05
3.34355e-05
2.98574e-05
2.79519e-05
2.70034e-05
2.65912e-05
2.64741e-05
2.65139e-05
2.66298e-05
2.6774e-05
2.69178e-05
2.70444e-05
2.71452e-05
2.72171e-05
2.72617e-05
2.7287e-05
2.72799e-05
2.7234e-05
2.7152e-05
2.70385e-05
2.68985e-05
2.6737e-05
2.65584e-05
2.63667e-05
2.61654e-05
2.59572e-05
2.57442e-05
2.55279e-05
2.53097e-05
2.50904e-05
2.48708e-05
2.46516e-05
2.44335e-05
2.42167e-05
2.40014e-05
2.37871e-05
2.35745e-05
2.33665e-05
2.316e-05
2.29525e-05
2.27419e-05
2.25265e-05
2.23034e-05
2.20692e-05
2.18055e-05
2.14875e-05
2.54418e-05
8.31359e-05
0.000135885
0.000179083
0.000212987
0.000237733
0.000251017
0.000240276
0.000259262
0.000256603
0.000250274
0.000245361
0.000242369
0.000240874
0.000240305
0.00023848
0.000227441
0.000225637
0.000223781
0.000221077
0.000218971
0.000217107
0.000218728
0.000211006
0.00020976
0.000210568
0.000212939
0.000216784
0.000222049
0.000228674
0.000236576
0.000245643
0.000255745
0.000266728
0.000278436
0.000290709
0.000303399
0.000316374
0.000329519
0.000342743
0.000355971
0.000369145
0.000382216
0.000395139
0.000407867
0.000420343
0.000432497
0.000444237
0.00045544
0.000465958
0.000475445
0.000484196
0.000492887
0.000501593
0.000510318
0.000519056
0.000527794
0.000536518
0.000545211
0.00055385
0.000562412
0.00057087
0.000579195
0.000587352
0.000595309
0.000603028
0.00061047
0.000617594
0.00062436
0.000630725
0.000636648
0.000642085
0.000646995
0.00065134
0.000655081
0.000658183
0.000660614
0.000662344
0.000663346
0.000663598
0.000663075
0.000661754
0.000659603
0.000656567
0.000652525
0.000647192
0.000639874
0.000629888
0.000618707
0.000606845
0.000594502
0.000581788
0.000568779
0.000555544
0.000542147
0.000528647
0.000515101
0.00050156
0.000488072
0.000474678
0.000461413
0.000448305
0.000435375
0.000422638
0.000410101
0.000397765
0.000385625
0.000373671
0.000361885
0.000350245
0.000338722
0.000327282
0.000315859
0.000304125
0.000289709
0.000273462
0.000256224
0.000238508
0.000221295
0.000205207
0.000189538
0.000200844
0.000210099
0.000217038
0.000226195
0.00023741
0.000246323
0.000248318
0.000241081
0.000225023
0.000202862
0.000178638
0.000156307
0.000138528
0.000126196
0.00011876
0.000114963
0.000113536
0.000113544
0.000114403
0.00011576
0.000117392
0.000119138
0.00012088
0.000122526
0.000124011
0.000125294
0.000126349
0.000127166
0.000127756
0.00012817
0.000128412
0.000128495
0.000128438
0.00012826
0.000127981
0.00012762
0.000127194
0.000126718
0.000126207
0.00012567
0.000125117
0.000124554
0.000123987
0.000123419
0.000122853
0.00012229
0.000121732
0.000121178
0.000120627
0.000120058
0.000119478
0.000118894
0.000118291
0.000117654
0.000116962
0.000116172
0.000115199
0.000113773
0.00011109
3.81074e-05
0.00011289
0.000183821
0.000241718
0.000286673
0.000319898
0.000342461
0.000355411
0.000362261
0.000361718
0.000356997
0.000350842
0.000345913
0.00034278
0.000340946
0.000339293
0.000336769
0.000334195
0.000331025
0.000327741
0.000325426
0.000325072
0.000327326
0.000331603
0.000340126
0.000352502
0.000368534
0.000387978
0.000410488
0.000435614
0.000462826
0.000491556
0.000521236
0.000551339
0.00058141
0.000611081
0.00064008
0.000668223
0.000695403
0.000721572
0.000746725
0.000770881
0.000794075
0.000816342
0.00083771
0.000858201
0.000877822
0.000896574
0.000914455
0.000931472
0.000947576
0.00096333
0.00097896
0.00099452
0.00101001
0.00102542
0.00104073
0.0010559
0.0010709
0.0010857
0.00110024
0.00111447
0.00112833
0.00114177
0.00115473
0.00116712
0.00117889
0.00118995
0.00120023
0.00120966
0.00121816
0.00122566
0.00123208
0.00123736
0.00124143
0.00124424
0.00124573
0.00124586
0.00124458
0.00124186
0.00123766
0.00123197
0.00122472
0.00121586
0.00120527
0.00119273
0.00117785
0.00116045
0.00114146
0.00112131
0.00110026
0.00107848
0.00105611
0.00103329
0.00101012
0.000986722
0.000963197
0.000939645
0.000916155
0.000892805
0.000869663
0.000846781
0.0008242
0.000801946
0.000780032
0.000758457
0.000737207
0.000716256
0.000695568
0.000675091
0.000654763
0.0006345
0.000614167
0.000593444
0.000571296
0.000546159
0.000518376
0.000487932
0.000455196
0.000420553
0.000384557
0.000357397
0.00033634
0.000320211
0.000310838
0.000307997
0.000308068
0.000306217
0.000298728
0.000284197
0.000263643
0.000239922
0.000216737
0.000197575
0.000184778
0.000178935
0.000178885
0.000182466
0.000187594
0.000192948
0.000197969
0.000202536
0.000206673
0.000210411
0.000213755
0.000216691
0.000219203
0.000221279
0.000222922
0.000224147
0.000225034
0.000225603
0.000225883
0.000225908
0.000225714
0.000225335
0.000224807
0.000224159
0.00022342
0.000222615
0.000221763
0.000220883
0.000219985
0.000219081
0.000218177
0.000217277
0.000216386
0.000215505
0.000214633
0.000213769
0.0002129
0.000212008
0.000211103
0.000210168
0.000209178
0.0002081
0.000206871
0.000205365
0.000203238
0.000199773
5.17778e-05
0.000150406
0.000242258
0.000313716
0.000366142
0.000402316
0.000424581
0.000435548
0.00043778
0.000434751
0.000429603
0.000424669
0.000421178
0.000419211
0.000418181
0.000417372
0.000416423
0.00041563
0.00041568
0.000417727
0.000423092
0.000432873
0.000447713
0.000467825
0.000493455
0.000524151
0.00055925
0.000597943
0.000639334
0.000682499
0.000726558
0.000770725
0.000814342
0.000856897
0.000898019
0.000937468
0.000975117
0.00101093
0.00104492
0.00107717
0.00110778
0.00113685
0.0011645
0.00119084
0.00121598
0.00124
0.00126298
0.001285
0.00130612
0.00132639
0.00134596
0.00136515
0.0013841
0.00140284
0.00142138
0.0014397
0.00145779
0.0014756
0.0014931
0.00151023
0.00152694
0.00154317
0.00155885
0.00157391
0.00158827
0.00160185
0.00161456
0.00162631
0.00163701
0.00164658
0.00165491
0.00166192
0.00166753
0.00167165
0.00167422
0.00167516
0.00167441
0.00167191
0.00166764
0.00166153
0.00165358
0.00164373
0.00163197
0.00161824
0.00160248
0.00158457
0.00156436
0.00154193
0.00151793
0.00149261
0.00146621
0.00143889
0.00141083
0.00138217
0.00135307
0.00132366
0.00129409
0.00126449
0.00123496
0.00120561
0.00117654
0.0011478
0.00111946
0.00109154
0.00106407
0.00103703
0.00101041
0.000984173
0.000958255
0.000932589
0.000907083
0.000881617
0.000856017
0.000829973
0.000802833
0.000773295
0.000740875
0.000705151
0.000665841
0.000622766
0.000576253
0.000530112
0.00048673
0.000447942
0.000416502
0.000394015
0.000379046
0.000367678
0.000355477
0.000339319
0.000318287
0.000293668
0.00026838
0.000246151
0.000230492
0.000223521
0.00022511
0.000232958
0.00024377
0.00025479
0.000264573
0.000272776
0.000279587
0.000285302
0.000290152
0.000294274
0.000297742
0.000300596
0.000302865
0.000304582
0.000305835
0.00030666
0.000307097
0.000307191
0.000306989
0.000306538
0.000305884
0.000305067
0.000304126
0.000303093
0.000301997
0.00030086
0.0002997
0.000298531
0.000297363
0.000296203
0.000295055
0.000293921
0.000292803
0.000291697
0.000290594
0.000289476
0.000288341
0.000287169
0.000285936
0.000284602
0.000283099
0.000281305
0.000278928
0.00027558
6.63661e-05
0.000190563
0.00030067
0.000382367
0.000439046
0.000475318
0.000495594
0.000503431
0.000503342
0.000499234
0.000494104
0.000489787
0.000487013
0.000485753
0.000485709
0.000486761
0.000489239
0.000493984
0.000502184
0.000515139
0.000533945
0.00055924
0.000591109
0.00062916
0.000672687
0.00072067
0.000771971
0.000825446
0.000880015
0.000934722
0.000988758
0.00104148
0.00109241
0.00114122
0.00118771
0.00123178
0.00127343
0.00131271
0.00134973
0.00138461
0.00141752
0.0014486
0.00147801
0.00150589
0.00153239
0.00155763
0.00158171
0.00160474
0.0016268
0.00164795
0.00166838
0.00168831
0.00170785
0.00172704
0.00174589
0.00176439
0.00178252
0.00180025
0.00181755
0.00183437
0.00185066
0.00186634
0.00188137
0.00189565
0.00190912
0.00192168
0.00193325
0.00194374
0.00195304
0.00196107
0.00196773
0.00197293
0.00197658
0.00197859
0.00197889
0.0019774
0.00197406
0.00196883
0.00196164
0.00195248
0.0019413
0.00192809
0.00191282
0.00189548
0.00187602
0.00185442
0.00183062
0.00180487
0.00177764
0.0017491
0.00171943
0.0016888
0.00165738
0.00162533
0.00159281
0.00155999
0.00152703
0.00149406
0.00146122
0.00142863
0.00139639
0.00136458
0.00133327
0.00130248
0.00127222
0.0012425
0.00121328
0.0011845
0.0011561
0.00112797
0.00110002
0.00107207
0.00104395
0.00101532
0.000985649
0.00095393
0.000919389
0.000881446
0.000839535
0.000793164
0.000742217
0.000688061
0.000632802
0.00057897
0.000529946
0.000488996
0.000457345
0.000433308
0.000413135
0.000392844
0.000369843
0.000343708
0.000316165
0.000290578
0.000271015
0.000260874
0.000261444
0.000271187
0.000286375
0.00030289
0.000317903
0.000330317
0.000340205
0.00034807
0.000354417
0.000359609
0.000363869
0.000367328
0.000370068
0.000372143
0.00037366
0.000374664
0.000375206
0.000375341
0.000375123
0.000374609
0.000373851
0.000372898
0.000371795
0.000370582
0.000369292
0.000367952
0.000366585
0.000365208
0.000363832
0.000362467
0.000361119
0.00035979
0.000358482
0.000357191
0.00035591
0.000354624
0.000353321
0.000351984
0.000350584
0.000349084
0.00034742
0.000345485
0.000343069
0.000340035
8.13721e-05
0.000226239
0.000352178
0.000443181
0.00050434
0.00054195
0.000561201
0.00056776
0.000566586
0.000561783
0.000556337
0.000552041
0.000549728
0.000549702
0.000552193
0.00055768
0.000566995
0.000581235
0.000601515
0.000628694
0.000663157
0.00070472
0.000752691
0.000806027
0.000863504
0.00092384
0.000985813
0.00104833
0.00111044
0.00117139
0.00123057
0.00128754
0.00134199
0.00139373
0.00144268
0.00148881
0.00153218
0.00157289
0.00161107
0.00164688
0.00168047
0.00171203
0.00174171
0.00176967
0.00179607
0.00182105
0.00184472
0.00186719
0.00188855
0.00190886
0.00192833
0.00194713
0.00196538
0.00198312
0.00200037
0.00201714
0.00203342
0.00204919
0.00206443
0.00207909
0.00209314
0.00210651
0.00211916
0.00213101
0.00214199
0.00215201
0.00216101
0.00216888
0.00217555
0.00218091
0.00218488
0.00218737
0.0021883
0.00218757
0.00218512
0.00218088
0.00217478
0.00216677
0.00215682
0.00214488
0.00213094
0.00211498
0.00209698
0.00207694
0.00205486
0.00203072
0.00200455
0.00197669
0.00194748
0.00191705
0.00188554
0.00185312
0.00181996
0.00178621
0.00175205
0.00171765
0.00168317
0.00164878
0.00161461
0.0015808
0.00154745
0.00151465
0.00148245
0.00145089
0.00141997
0.00138968
0.00135997
0.00133076
0.00130197
0.00127348
0.00124515
0.00121679
0.00118818
0.00115899
0.00112871
0.0010965
0.00106148
0.00102303
0.000980496
0.00093324
0.000880861
0.00082372
0.000763036
0.000700875
0.000640386
0.00058539
0.000538934
0.00050175
0.000471815
0.000445436
0.000419078
0.000390846
0.000361127
0.000332513
0.00030907
0.00029498
0.000292813
0.000302216
0.000319828
0.000340761
0.000360799
0.0003777
0.000391033
0.000401313
0.000409278
0.000415543
0.000420526
0.000424488
0.000427586
0.000429919
0.000431607
0.000432718
0.000433313
0.000433454
0.000433201
0.000432618
0.000431762
0.000430688
0.000429447
0.000428081
0.000426629
0.000425122
0.000423585
0.000422037
0.000420494
0.000418965
0.000417457
0.000415974
0.000414517
0.000413084
0.000411668
0.000410254
0.00040883
0.000407375
0.000405864
0.000404259
0.000402506
0.000400518
0.000398154
0.000395428
9.56659e-05
0.000258375
0.000397787
0.000497225
0.000562988
0.000602418
0.000622549
0.00062942
0.000628265
0.000623398
0.000618036
0.000614299
0.000613464
0.000616356
0.000623713
0.000636376
0.000655284
0.0006813
0.000714984
0.000756418
0.000805149
0.000860267
0.00092056
0.000984692
0.00105134
0.00111927
0.00118741
0.00125487
0.00132092
0.00138499
0.00144664
0.00150558
0.0015616
0.0016146
0.00166454
0.00171144
0.00175538
0.00179645
0.00183481
0.00187059
0.00190397
0.00193511
0.00196417
0.00199131
0.00201668
0.00204043
0.00206267
0.00208352
0.00210306
0.00212138
0.00213866
0.00215509
0.00217076
0.00218575
0.0022001
0.00221381
0.00222691
0.00223938
0.00225122
0.00226241
0.0022729
0.00228267
0.00229166
0.00229984
0.00230712
0.00231346
0.00231878
0.00232301
0.00232606
0.00232786
0.00232833
0.00232738
0.00232495
0.00232096
0.00231534
0.00230802
0.00229896
0.0022881
0.00227542
0.00226087
0.00224444
0.00222612
0.0022059
0.00218379
0.00215979
0.00213392
0.00210621
0.00207713
0.00204685
0.0020155
0.00198321
0.00195011
0.00191639
0.00188219
0.0018477
0.0018131
0.00177855
0.00174422
0.00171025
0.00167678
0.00164392
0.00161175
0.00158032
0.00154966
0.00151976
0.00149058
0.00146206
0.00143409
0.00140657
0.00137935
0.00135224
0.00132505
0.0012975
0.00126925
0.00123981
0.00120841
0.00117411
0.00113631
0.00109434
0.0010475
0.000995265
0.000937519
0.000874846
0.000808683
0.000741597
0.000677217
0.000619364
0.000570528
0.000530625
0.000497075
0.000466249
0.00043529
0.000403382
0.000372167
0.000345331
0.000327361
0.000321751
0.00032933
0.000347563
0.000371461
0.00039579
0.000417063
0.000434036
0.000446974
0.000456726
0.000464134
0.000469834
0.000474243
0.000477622
0.000480133
0.000481913
0.000483064
0.000483658
0.000483764
0.00048345
0.000482781
0.000481822
0.000480631
0.00047926
0.000477757
0.000476163
0.000474512
0.000472831
0.000471141
0.000469458
0.000467795
0.000466158
0.000464552
0.000462977
0.000461433
0.000459913
0.000458405
0.000456893
0.000455357
0.000453773
0.000452108
0.000450313
0.000448322
0.000446047
0.000443581
0.000108531
0.000285491
0.000435882
0.000542477
0.000612932
0.000655867
0.000678594
0.000687391
0.000687693
0.000684057
0.000680069
0.000678342
0.000680702
0.000688466
0.000702682
0.00072423
0.000753767
0.00079159
0.000837527
0.000890918
0.000950703
0.00101558
0.00108416
0.0011551
0.00122721
0.00129942
0.00137087
0.00144085
0.0015088
0.00157429
0.001637
0.00169673
0.00175332
0.00180671
0.00185688
0.00190387
0.00194775
0.00198862
0.00202661
0.00206185
0.0020945
0.0021247
0.00215262
0.0021784
0.00220218
0.00222411
0.00224429
0.00226286
0.00227989
0.00229547
0.00230979
0.00232302
0.0023353
0.00234668
0.00235724
0.002367
0.002376
0.00238424
0.00239173
0.00239847
0.00240445
0.00240965
0.00241403
0.00241758
0.00242025
0.00242198
0.00242275
0.00242247
0.00242111
0.0024186
0.00241487
0.00240986
0.00240351
0.00239576
0.00238655
0.00237585
0.00236359
0.00234974
0.00233427
0.00231716
0.00229838
0.00227793
0.00225581
0.00223201
0.00220657
0.00217949
0.00215088
0.0021212
0.00209054
0.00205898
0.00202666
0.00199373
0.00196032
0.00192663
0.00189281
0.00185905
0.00182553
0.00179241
0.00175984
0.00172796
0.00169687
0.00166664
0.00163732
0.00160891
0.00158138
0.00155468
0.0015287
0.00150331
0.00147837
0.00145369
0.00142906
0.00140423
0.00137891
0.00135272
0.00132516
0.00129551
0.00126279
0.00122645
0.0011858
0.00114017
0.00108895
0.00103182
0.000968978
0.000901361
0.00083095
0.000760901
0.000695106
0.000637008
0.000588104
0.000547226
0.000511299
0.000477091
0.000442893
0.000409429
0.000379798
0.00035844
0.000349391
0.000354433
0.000371989
0.000397442
0.000425042
0.000450226
0.000470787
0.000486513
0.000498195
0.000506837
0.000513278
0.000518109
0.000521713
0.000524331
0.000526137
0.000527265
0.000527804
0.000527831
0.000527422
0.000526647
0.000525572
0.000524257
0.000522759
0.000521127
0.000519403
0.000517623
0.000515815
0.000514003
0.000512203
0.000510428
0.000508686
0.000506981
0.000505314
0.000503685
0.000502087
0.00050051
0.000498935
0.000497345
0.000495718
0.000494023
0.000492219
0.000490256
0.000488082
0.000485828
0.000119388
0.000305853
0.00046423
0.000577598
0.000653711
0.000701403
0.000728206
0.000740541
0.000743975
0.000743286
0.000742422
0.000744469
0.000751724
0.000765833
0.000787922
0.00081865
0.000858195
0.000906236
0.000961981
0.00102428
0.00109178
0.00116306
0.00123678
0.00131173
0.00138686
0.00146132
0.0015344
0.00160553
0.00167426
0.00174028
0.00180332
0.00186321
0.00191986
0.00197319
0.00202321
0.00206994
0.00211345
0.00215382
0.00219115
0.00222558
0.00225723
0.00228623
0.00231274
0.00233687
0.00235877
0.00237856
0.00239636
0.00241228
0.00242643
0.00243888
0.00244978
0.00245936
0.00246774
0.00247501
0.00248124
0.00248649
0.00249079
0.00249419
0.0024967
0.00249835
0.00249914
0.00249908
0.00249816
0.00249638
0.00249373
0.00249017
0.00248569
0.00248025
0.00247383
0.00246638
0.00245787
0.00244826
0.00243751
0.00242557
0.00241242
0.00239801
0.00238232
0.00236532
0.00234697
0.00232728
0.00230621
0.00228376
0.00225992
0.00223471
0.00220812
0.00218019
0.00215116
0.00212133
0.00209074
0.0020595
0.00202771
0.00199551
0.00196307
0.00193055
0.00189813
0.001866
0.00183433
0.0018033
0.00177305
0.00174372
0.0017154
0.00168816
0.00166202
0.00163695
0.0016129
0.00158976
0.0015674
0.00154564
0.00152429
0.00150313
0.0014819
0.00146031
0.00143803
0.00141466
0.00138969
0.0013624
0.00133186
0.00129749
0.00125866
0.0012147
0.00116499
0.00110914
0.00104711
0.000979501
0.000907834
0.000834753
0.000763885
0.000699019
0.000642701
0.000595071
0.000553944
0.000516205
0.000479632
0.000444189
0.000412334
0.000388237
0.000376152
0.000378532
0.000394668
0.000420555
0.000450356
0.000478753
0.000502612
0.000521091
0.000534768
0.000544707
0.000551916
0.000557156
0.000560943
0.000563609
0.000565378
0.000566423
0.000566851
0.000566754
0.000566214
0.000565305
0.000564095
0.000562647
0.000561018
0.000559258
0.000557411
0.000555513
0.000553593
0.000551674
0.000549775
0.000547907
0.000546079
0.000544295
0.000542557
0.000540864
0.000539209
0.000537583
0.000535968
0.000534347
0.000532699
0.000530998
0.000529208
0.000527291
0.000525221
0.000523142
0.000126144
0.000318755
0.000483771
0.00060344
0.000685429
0.000738648
0.00077069
0.000788001
0.000796193
0.00080018
0.000804156
0.000811534
0.000824904
0.000846051
0.000876006
0.000915109
0.000963076
0.00101911
0.00108203
0.00115047
0.00122298
0.00129821
0.00137492
0.00145207
0.00152876
0.00160428
0.00167804
0.00174957
0.0018185
0.00188457
0.00194756
0.00200732
0.00206376
0.00211683
0.00216651
0.00221282
0.00225581
0.00229554
0.00233211
0.00236561
0.00239616
0.00242387
0.00244886
0.00247125
0.00249117
0.00250872
0.00252403
0.00253719
0.00254831
0.00255748
0.0025648
0.00257053
0.0025748
0.00257772
0.00257937
0.00257982
0.00257913
0.00257735
0.00257454
0.00257071
0.00256592
0.00256018
0.00255352
0.00254596
0.00253751
0.00252818
0.00251798
0.0025069
0.00249495
0.00248211
0.00246839
0.00245377
0.00243824
0.00242178
0.00240439
0.00238604
0.00236673
0.00234644
0.00232515
0.00230285
0.00227952
0.00225516
0.00222976
0.0022033
0.00217581
0.00214731
0.00211819
0.00208851
0.00205832
0.00202772
0.00199681
0.00196574
0.00193466
0.00190375
0.00187321
0.00184322
0.00181396
0.00178562
0.00175836
0.00173228
0.00170749
0.00168402
0.00166187
0.00164097
0.00162123
0.00160248
0.00158454
0.00156718
0.00155015
0.00153317
0.00151595
0.00149816
0.00147943
0.00145934
0.00143736
0.00141281
0.00138475
0.00135264
0.00131588
0.00127383
0.0012259
0.00117167
0.00111099
0.00104424
0.000972602
0.00089827
0.000824503
0.000755075
0.000693101
0.000639743
0.000593776
0.000552519
0.000513584
0.000476399
0.000442832
0.000416669
0.000402149
0.00040212
0.000416558
0.000442118
0.000473171
0.000503984
0.000530656
0.000551683
0.000567306
0.000578549
0.00058653
0.000592162
0.000596092
0.000598751
0.000600424
0.000601325
0.000601588
0.000601321
0.000600611
0.000599538
0.000598172
0.000596577
0.00059481
0.000592922
0.000590955
0.000588946
0.000586924
0.000584912
0.000582928
0.000580983
0.000579087
0.000577243
0.000575452
0.000573712
0.000572019
0.000570364
0.000568726
0.000567092
0.000565442
0.000563753
0.000561994
0.000560136
0.000558169
0.000556239
0.000129572
0.000325662
0.000495511
0.000620681
0.000708472
0.000767668
0.000805788
0.000829207
0.00084349
0.000853564
0.000863714
0.000877484
0.000897566
0.000925731
0.000962849
0.00100898
0.00106351
0.00112537
0.00119323
0.00126565
0.00134125
0.00141876
0.0014971
0.00157534
0.00165271
0.00172861
0.00180252
0.00187406
0.00194289
0.00200878
0.00207154
0.00213103
0.00218716
0.00223988
0.00228915
0.00233499
0.00237743
0.00241651
0.0024523
0.00248487
0.00251433
0.00254076
0.00256426
0.00258495
0.00260293
0.00261829
0.00263115
0.0026416
0.00264974
0.00265566
0.00265944
0.00266135
0.00266153
0.00266009
0.00265714
0.00265276
0.00264702
0.00264
0.00263175
0.00262234
0.00261182
0.00260024
0.00258765
0.00257411
0.00255964
0.0025443
0.00252812
0.00251115
0.0024934
0.00247492
0.00245573
0.00243586
0.00241533
0.00239416
0.00237236
0.00234994
0.00232692
0.00230329
0.00227904
0.00225417
0.00222867
0.00220251
0.00217568
0.00214815
0.00211994
0.00209123
0.0020622
0.00203287
0.00200328
0.00197352
0.00194368
0.00191393
0.00188442
0.00185534
0.0018269
0.00179931
0.00177276
0.00174745
0.00172355
0.00170116
0.00168037
0.00166119
0.00164358
0.00162741
0.00161254
0.00159872
0.00158572
0.00157323
0.00156094
0.00154851
0.0015356
0.00152186
0.00150688
0.00149023
0.00147138
0.00144966
0.00142418
0.00139441
0.0013598
0.00131975
0.00127372
0.00122128
0.00116223
0.00109683
0.001026
0.000951607
0.00087652
0.000804323
0.000738364
0.000680502
0.000630371
0.000585881
0.000544741
0.000506073
0.000471263
0.000443681
0.000427394
0.000425423
0.00043822
0.000463029
0.000494588
0.000527031
0.000555918
0.000579137
0.000596537
0.000609012
0.000617726
0.000623712
0.000627739
0.000630336
0.000631855
0.000632554
0.000632599
0.000632113
0.000631194
0.000629925
0.00062838
0.000626622
0.000624709
0.000622688
0.000620603
0.000618488
0.000616373
0.00061428
0.000612224
0.000610218
0.000608268
0.000606379
0.000604552
0.000602783
0.000601069
0.0005994
0.000597756
0.000596125
0.000594488
0.000592825
0.00059111
0.000589321
0.000587457
0.000585657
0.000130542
0.00032744
0.00050038
0.000630186
0.000723529
0.000788889
0.000833598
0.000863875
0.000885149
0.000902239
0.000919365
0.000940027
0.000966866
0.00100156
0.00104481