/*--------------------------------*- C++ -*----------------------------------*\
  =========                 |
  \\      /  F ield         | OpenFOAM: The Open Source CFD Toolbox
   \\    /   O peration     | Website:  https://openfoam.org
    \\  /    A nd           | Version:  9
     \\/     M anipulation  |
\*---------------------------------------------------------------------------*/
FoamFile
{
    format      ascii;
    class       volScalarField;
    location    "0.08";
    object      p;
}
// * * * * * * * * * * * * * * * * * * * * * * * * * * * * * * * * * * * * * //

dimensions      [0 2 -2 0 0 0 0];

internalField   nonuniform List<scalar> 
12225
(
0.77302
0.451608
0.356083
0.343763
0.33836
0.336925
0.341067
0.348737
0.358661
0.370614
0.384474
0.399981
0.416805
0.434507
0.452592
0.470007
0.486651
0.49603
0.35806
0.366152
0.352324
0.346507
0.341436
0.339779
0.343606
0.351109
0.36102
0.373066
0.38709
0.402821
0.419929
0.437989
0.456596
0.474898
0.494332
0.51704
0.324876
0.375097
0.358745
0.349652
0.344949
0.343494
0.34704
0.354288
0.364111
0.376203
0.390375
0.406352
0.423829
0.442432
0.461914
0.481639
0.503622
0.531453
0.358519
0.381974
0.360277
0.35075
0.346984
0.346039
0.349541
0.35663
0.366355
0.378417
0.392622
0.408713
0.426427
0.445461
0.465677
0.486583
0.509904
0.53654
0.365557
0.375623
0.357748
0.350196
0.347474
0.347174
0.3508
0.357797
0.367393
0.379318
0.393388
0.409371
0.427035
0.446122
0.466487
0.487619
0.510577
0.534196
0.359432
0.3666
0.354298
0.348662
0.346823
0.347171
0.350961
0.357854
0.367247
0.378901
0.392643
0.408255
0.425517
0.444166
0.463958
0.484259
0.505471
0.525534
0.353258
0.359117
0.350685
0.346398
0.345277
0.346188
0.350095
0.356818
0.365897
0.377119
0.390313
0.405264
0.421736
0.439421
0.457939
0.47651
0.494996
0.511063
0.348407
0.352689
0.346753
0.343494
0.342946
0.344281
0.348213
0.354665
0.363294
0.373899
0.386305
0.400286
0.415569
0.431778
0.448398
0.464532
0.479647
0.491449
0.343743
0.346592
0.342435
0.340018
0.339889
0.341486
0.34532
0.351378
0.359397
0.369187
0.380556
0.393256
0.406966
0.421239
0.435449
0.448635
0.460023
0.467522
0.33881
0.340618
0.337765
0.336009
0.336143
0.33783
0.341426
0.346947
0.354186
0.362953
0.373039
0.384162
0.395956
0.40791
0.419331
0.429247
0.436785
0.440113
0.333581
0.334696
0.332756
0.331486
0.331734
0.333342
0.336554
0.341388
0.347674
0.355218
0.363788
0.373073
0.382666
0.392018
0.400406
0.4069
0.410631
0.410019
0.328513
0.329215
0.327832
0.32686
0.327092
0.328486
0.331212
0.335281
0.340542
0.346797
0.353794
0.361202
0.368591
0.375399
0.380918
0.384285
0.384692
0.380737
0.323278
0.323679
0.322676
0.321864
0.321964
0.323022
0.32515
0.328344
0.332465
0.33731
0.342612
0.348028
0.353117
0.357327
0.359986
0.360322
0.357601
0.350671
0.317001
0.317171
0.316412
0.315642
0.315473
0.316011
0.317322
0.319385
0.322067
0.325161
0.328393
0.331415
0.333793
0.335008
0.334456
0.331483
0.325462
0.315522
0.309488
0.309498
0.308815
0.30793
0.307319
0.307116
0.307355
0.307998
0.308916
0.309902
0.310689
0.310939
0.310253
0.308169
0.304181
0.29777
0.288447
0.275587
0.300558
0.300448
0.299668
0.298467
0.297201
0.296006
0.294894
0.293817
0.292648
0.291199
0.289218
0.286408
0.282423
0.276887
0.269409
0.259611
0.247143
0.231586
0.290095
0.289867
0.288819
0.287067
0.284899
0.282441
0.2797
0.276621
0.273096
0.268963
0.264011
0.257998
0.250658
0.241711
0.230887
0.217938
0.202642
0.184749
0.278203
0.277826
0.276337
0.27378
0.270438
0.266448
0.261824
0.256525
0.250472
0.243544
0.23559
0.226436
0.215901
0.203806
0.189989
0.174312
0.156653
0.136895
0.265537
0.264958
0.262833
0.259185
0.25437
0.248572
0.241835
0.234152
0.22549
0.215785
0.204952
0.192891
0.179506
0.164706
0.148418
0.130589
0.111174
0.0901523
0.256474
0.255738
0.252943
0.248188
0.241996
0.234628
0.226159
0.216621
0.206026
0.194351
0.181552
0.167579
0.152383
0.135925
0.118178
0.0991319
0.0787798
0.0571442
0.251626
0.25081
0.247398
0.241633
0.234285
0.22568
0.215916
0.205062
0.19316
0.180209
0.166186
0.151066
0.134826
0.117449
0.0989341
0.0792889
0.0585221
0.0366738
0.249452
0.248675
0.244582
0.237744
0.229303
0.219616
0.208779
0.1969
0.18404
0.1702
0.155362
0.139513
0.12264
0.104743
0.0858269
0.0659124
0.0450163
0.0231891
0.249215
0.248771
0.243906
0.235906
0.226446
0.215806
0.204074
0.19141
0.177872
0.163441
0.148094
0.131819
0.114609
0.0964631
0.0773943
0.0574256
0.0365776
0.0149058
0.250339
0.250707
0.244846
0.235611
0.22524
0.213737
0.201235
0.187974
0.173976
0.159177
0.143545
0.127063
0.109719
0.0915134
0.0724587
0.0525782
0.0318935
0.0104623
0.252975
0.254807
0.247122
0.236455
0.225281
0.21294
0.199738
0.186026
0.171737
0.156742
0.140993
0.124466
0.107141
0.0890125
0.0700924
0.0504026
0.0299634
0.00883483
0.256868
0.262343
0.250999
0.238199
0.226152
0.212919
0.199063
0.185028
0.170593
0.155547
0.139823
0.123385
0.106199
0.0882566
0.0695664
0.0501482
0.0300197
0.00924406
0.252493
0.271039
0.255919
0.240454
0.227225
0.213017
0.198631
0.184445
0.170026
0.155086
0.139532
0.123311
0.106375
0.088714
0.0703343
0.0512541
0.0314881
0.0111016
0.218828
0.267644
0.256915
0.241703
0.227425
0.212301
0.197713
0.1837
0.169548
0.154915
0.139718
0.123863
0.107293
0.0900049
0.0720062
0.0533162
0.0339494
0.0139664
0.225122
0.251493
0.249777
0.240391
0.226164
0.210394
0.196003
0.182531
0.168917
0.154761
0.140101
0.124729
0.108607
0.0917482
0.0741672
0.0558878
0.0369304
0.0173562
0.63109
0.359548
0.263495
0.24224
0.22622
0.209783
0.195493
0.182362
0.169104
0.155376
0.14099
0.125888
0.110036
0.0934408
0.0761213
0.0581028
0.0394114
0.0201229
-0.513823
-0.49363
-0.486872
-0.497815
-0.515854
-0.535975
-0.556543
-0.575819
-0.591902
-0.605421
-0.617101
-0.625859
-0.633338
-0.640676
-0.64877
-0.658656
-0.67151
-0.688121
-0.708399
-0.732034
-0.758742
-0.7882
-0.822235
-0.863033
-0.912029
-0.97099
-1.0421
-1.12688
-1.22606
-1.33935
-1.46551
-1.60241
-1.74733
-1.89721
-2.04888
-2.19934
-2.34583
-2.486
-2.61791
-2.73999
-2.85107
-2.95029
-3.03702
-3.11088
-3.17161
-3.21908
-3.25336
-3.27488
-3.28413
-3.28082
-3.26356
-3.23095
-3.18359
-3.12232
-3.04773
-2.96026
-2.86032
-2.74834
-2.62481
-2.49028
-2.34538
-2.19083
-2.02744
-1.85609
-1.67778
-1.49357
-1.30463
-1.11219
-0.91754
-0.722035
-0.527073
-0.334076
-0.144477
0.0402942
0.218838
0.389798
0.551883
0.703888
0.844707
0.973356
1.08898
1.19089
1.27851
1.35144
1.40945
1.45256
1.48129
1.49621
1.49738
1.48502
1.45987
1.42282
1.37487
1.31704
1.25046
1.17625
1.09555
1.00951
0.919249
0.825857
0.730385
0.633839
0.53718
0.441327
0.347161
0.255538
0.167291
0.0832561
0.00427781
-0.0687627
-0.134875
-0.192972
-0.241577
-0.277538
-0.302128
-0.315564
-0.317272
-0.307333
-0.286216
-0.253649
-0.240167
-0.215322
-0.136845
-0.0545162
0.0102911
0.0684662
0.123161
0.167505
0.200467
0.223468
0.237984
0.245995
0.249624
0.250431
0.249214
0.246352
0.2422
0.237189
0.231786
0.226416
0.221407
0.216977
0.213244
0.210247
0.207968
0.206351
0.205319
0.204781
0.204653
0.204837
0.205245
0.205811
0.206473
0.207178
0.207883
0.208556
0.209172
0.209714
0.210173
0.210543
0.210825
0.21102
0.211135
0.211176
0.211151
0.211068
0.210938
0.210768
0.21057
0.210355
0.210132
0.209906
0.209698
0.209524
0.209405
0.209369
0.209476
0.209783
0.210672
0.211749
-0.524048
-0.516576
-0.517423
-0.530226
-0.549378
-0.570087
-0.589959
-0.607867
-0.622851
-0.630046
-0.628956
-0.626227
-0.62347
-0.621855
-0.622222
-0.62453
-0.629395
-0.637999
-0.650005
-0.665883
-0.686818
-0.712022
-0.744211
-0.786434
-0.839197
-0.90439
-0.984758
-1.08171
-1.19532
-1.32433
-1.46633
-1.61809
-1.77603
-1.93653
-2.09624
-2.25226
-2.40218
-2.54408
-2.6765
-2.79836
-2.90886
-3.00742
-3.09366
-3.16724
-3.22793
-3.27549
-3.3097
-3.33028
-3.33688
-3.32942
-3.30858
-3.27588
-3.23103
-3.17358
-3.10346
-3.02083
-2.92595
-2.8192
-2.70099
-2.57184
-2.43236
-2.28323
-2.12522
-1.9592
-1.7861
-1.60697
-1.42292
-1.23514
-1.04489
-0.853481
-0.662264
-0.472624
-0.285957
-0.103657
0.0729089
0.242411
0.403582
0.555233
0.696275
0.825732
0.942757
1.04665
1.13685
1.21299
1.27489
1.32249
1.35534
1.37332
1.37735
1.36833
1.34698
1.31407
1.27053
1.21734
1.15555
1.08623
1.01047
0.929373
0.844024
0.755477
0.664756
0.572846
0.480689
0.389195
0.299236
0.211663
0.127311
0.0470156
-0.0283817
-0.0980081
-0.160951
-0.216292
-0.263261
-0.301981
-0.329175
-0.343268
-0.34441
-0.331406
-0.304829
-0.262939
-0.187287
-0.114341
-0.0684506
-0.0105897
0.0527899
0.10646
0.149196
0.18309
0.208106
0.225532
0.237228
0.244785
0.249284
0.251269
0.250995
0.248712
0.244796
0.239766
0.234179
0.228531
0.223202
0.218447
0.214405
0.211126
0.208597
0.206764
0.205548
0.204858
0.204591
0.204666
0.204997
0.205507
0.206129
0.20681
0.207502
0.208172
0.208792
0.209344
0.209817
0.210204
0.210505
0.21072
0.210856
0.210917
0.210912
0.210849
0.210738
0.210587
0.210406
0.210206
0.209999
0.209801
0.209616
0.209464
0.209368
0.209357
0.209495
0.209813
0.210695
0.211476
-0.539092
-0.539915
-0.544731
-0.556582
-0.572358
-0.588345
-0.602242
-0.612666
-0.618759
-0.620089
-0.617396
-0.612147
-0.605787
-0.599775
-0.59532
-0.593337
-0.594801
-0.600702
-0.6117
-0.628921
-0.654545
-0.69057
-0.7397
-0.803917
-0.883211
-0.977254
-1.08515
-1.20545
-1.33628
-1.47543
-1.62051
-1.76914
-1.91903
-2.06808
-2.21442
-2.35641
-2.49264
-2.62189
-2.74316
-2.85557
-2.95841
-3.05107
-3.13304
-3.20391
-3.26331
-3.31093
-3.34652
-3.36975
-3.38022
-3.37764
-3.36215
-3.33411
-3.29363
-3.24068
-3.17533
-3.09772
-3.00808
-2.90671
-2.79402
-2.67048
-2.53664
-2.39317
-2.24079
-2.08034
-1.91271
-1.73892
-1.56003
-1.3772
-1.19165
-1.00464
-0.817503
-0.631578
-0.448231
-0.268824
-0.0946985
0.07284
0.232544
0.38324
0.523849
0.653402
0.771058
0.876114
0.968023
1.04641
1.11109
1.16199
1.19891
1.22187
1.23145
1.22827
1.21294
1.18619
1.14888
1.10193
1.04636
0.983211
0.913541
0.838421
0.758909
0.676043
0.590827
0.504233
0.417195
0.330614
0.24536
0.162283
0.0822183
0.00599924
-0.0655352
-0.131528
-0.19111
-0.243423
-0.287611
-0.322849
-0.347146
-0.360687
-0.361672
-0.349525
-0.323941
-0.283301
-0.222244
-0.161458
-0.106492
-0.0378747
0.0349078
0.096868
0.146392
0.184592
0.211731
0.230062
0.242119
0.2497
0.25399
0.255648
0.254994
0.252298
0.247962
0.242518
0.236533
0.230508
0.224828
0.21975
0.215417
0.21188
0.209125
0.207097
0.205714
0.204884
0.204507
0.204492
0.204753
0.205211
0.205797
0.206455
0.207136
0.207804
0.208428
0.208991
0.209478
0.209882
0.210201
0.210436
0.210591
0.210673
0.210688
0.210645
0.210552
0.21042
0.210257
0.210076
0.209886
0.209699
0.209529
0.209393
0.209315
0.20932
0.209467
0.209758
0.210558
0.210853
-0.52906
-0.54075
-0.551172
-0.563733
-0.577387
-0.589951
-0.599863
-0.606183
-0.608384
-0.606616
-0.601812
-0.595271
-0.588473
-0.582885
-0.579891
-0.580916
-0.5876
-0.601722
-0.625124
-0.659517
-0.706312
-0.766458
-0.840207
-0.927083
-1.02595
-1.13529
-1.25345
-1.37881
-1.50983
-1.64506
-1.78309
-1.92255
-2.06209
-2.20039
-2.33617
-2.46821
-2.59538
-2.71662
-2.83099
-2.93763
-3.03578
-3.12477
-3.204
-3.27295
-3.33115
-3.3782
-3.41376
-3.43753
-3.44925
-3.44876
-3.43607
-3.41116
-3.37398
-3.32451
-3.26281
-3.18899
-3.10324
-3.00585
-2.89716
-2.77762
-2.64776
-2.50818
-2.35959
-2.20279
-2.03866
-1.86816
-1.69235
-1.51235
-1.32935
-1.14461
-0.959426
-0.775131
-0.593075
-0.414611
-0.241073
-0.0737649
0.0860673
0.237248
0.378691
0.509421
0.628583
0.735461
0.829485
0.910243
0.977484
1.03109
1.07105
1.09754
1.11096
1.11178
1.10058
1.07807
1.04509
1.00255
0.951435
0.892756
0.827562
0.756899
0.681807
0.603303
0.522375
0.439975
0.357024
0.274406
0.192979
0.113581
0.0370382
-0.0358283
-0.104192
-0.167216
-0.224055
-0.273854
-0.315777
-0.349012
-0.372442
-0.385306
-0.38651
-0.375427
-0.351746
-0.315305
-0.265758
-0.209291
-0.147241
-0.0755756
-0.000402911
0.0687587
0.127498
0.173795
0.207255
0.229868
0.244368
0.253098
0.257771
0.259412
0.258529
0.255473
0.250704
0.244813
0.23841
0.232017
0.22602
0.220672
0.216109
0.212375
0.209453
0.207283
0.205782
0.204853
0.204398
0.204321
0.204534
0.204957
0.205519
0.206161
0.206834
0.2075
0.208128
0.208698
0.209195
0.209611
0.209943
0.210192
0.210362
0.210458
0.210487
0.210458
0.210379
0.21026
0.21011
0.20994
0.20976
0.209582
0.20942
0.20929
0.209214
0.209211
0.209333
0.209548
0.210175
0.210033
-0.47279
-0.496619
-0.514405
-0.530374
-0.545012
-0.557376
-0.566632
-0.572434
-0.574832
-0.574434
-0.572325
-0.569915
-0.568761
-0.570477
-0.576748
-0.589365
-0.610228
-0.641173
-0.683687
-0.73869
-0.806386
-0.886269
-0.977242
-1.07783
-1.18655
-1.30202
-1.42301
-1.54842
-1.67724
-1.80844
-1.94106
-2.07408
-2.20649
-2.3373
-2.46551
-2.59016
-2.71031
-2.8251
-2.93368
-3.03527
-3.12917
-3.21469
-3.29124
-3.35826
-3.41524
-3.46173
-3.49732
-3.52166
-3.53445
-3.53548
-3.52461
-3.50174
-3.46678
-3.41969
-3.36048
-3.28924
-3.20615
-3.11142
-3.00539
-2.88847
-2.76114
-2.62399
-2.4777
-2.32303
-2.16085
-1.99209
-1.81779
-1.63906
-1.45708
-1.2731
-1.0884
-0.904314
-0.722197
-0.543403
-0.369275
-0.201121
-0.0401999
0.112299
0.255279
0.387745
0.508827
0.61779
0.71404
0.797138
0.866789
0.922835
0.965286
0.994364
1.01045
1.01402
1.00568
0.986127
0.956199
0.916799
0.868895
0.813496
0.751632
0.684338
0.612635
0.537524
0.459973
0.380915
0.301248
0.221838
0.143522
0.0671182
-0.00656569
-0.0767261
-0.142556
-0.203239
-0.257953
-0.305868
-0.346173
-0.378083
-0.400705
-0.413204
-0.414832
-0.404982
-0.383379
-0.350034
-0.304824
-0.250011
-0.187635
-0.11732
-0.0421578
0.0311516
0.0970211
0.151743
0.193462
0.222789
0.241968
0.253572
0.259776
0.262058
0.261279
0.258026
0.252902
0.246599
0.239801
0.233067
0.226795
0.221229
0.216493
0.212622
0.209589
0.20733
0.205756
0.204769
0.204268
0.204156
0.204342
0.204745
0.205293
0.205927
0.206595
0.20726
0.20789
0.208464
0.208967
0.209391
0.209732
0.20999
0.210169
0.210274
0.210312
0.210292
0.210221
0.21011
0.209967
0.209803
0.209628
0.209453
0.209291
0.209158
0.20907
0.209042
0.209113
0.209229
0.209659
0.20917
-0.376045
-0.410799
-0.440072
-0.462796
-0.481093
-0.495807
-0.50711
-0.515324
-0.521206
-0.525879
-0.530756
-0.537436
-0.547592
-0.562922
-0.585114
-0.615795
-0.656392
-0.707935
-0.770872
-0.845019
-0.929654
-1.02369
-1.12586
-1.23484
-1.34938
-1.46838
-1.59088
-1.71603
-1.84304
-1.97116
-2.09963
-2.22774
-2.35471
-2.47978
-2.60218
-2.72114
-2.83587
-2.94561
-3.04962
-3.14718
-3.2376
-3.32024
-3.39447
-3.45973
-3.51549
-3.56127
-3.59661
-3.62114
-3.6345
-3.63643
-3.62671
-3.60519
-3.57172
-3.52624
-3.46874
-3.39927
-3.31796
-3.22501
-3.12072
-3.00546
-2.87969
-2.74397
-2.59895
-2.44538
-2.28409
-2.11602
-1.94218
-1.76367
-1.58167
-1.39743
-1.21224
-1.02743
-0.844366
-0.664421
-0.488949
-0.319278
-0.156685
-0.00237804
0.142525
0.277011
0.400191
0.511308
0.609754
0.695068
0.766943
0.825208
0.86988
0.901191
0.919534
0.925402
0.919401
0.902259
0.874805
0.837947
0.792654
0.739935
0.680813
0.616315
0.547451
0.475206
0.400531
0.324337
0.247501
0.170862
0.0952345
0.0214133
-0.0498176
-0.117676
-0.181375
-0.240122
-0.293115
-0.339551
-0.378637
-0.409603
-0.431645
-0.44403
-0.446116
-0.437376
-0.417548
-0.386586
-0.344507
-0.292586
-0.232308
-0.16392
-0.0894946
-0.0139456
0.0574754
0.120242
0.171033
0.208783
0.234602
0.25075
0.259653
0.263285
0.263013
0.259796
0.25447
0.247863
0.240744
0.233727
0.227231
0.221498
0.21664
0.212679
0.209581
0.207273
0.205662
0.204648
0.204126
0.203998
0.204173
0.204568
0.20511
0.20574
0.206407
0.207071
0.207702
0.208278
0.208785
0.209212
0.209557
0.209819
0.210003
0.210113
0.210156
0.210141
0.210074
0.209967
0.209827
0.209665
0.20949
0.209313
0.209146
0.209
0.208891
0.208826
0.208832
0.208841
0.209086
0.208323
-0.256241
-0.302651
-0.344182
-0.374922
-0.398427
-0.417371
-0.432942
-0.446221
-0.458569
-0.471596
-0.487046
-0.506678
-0.532155
-0.564971
-0.606396
-0.657388
-0.718499
-0.7898
-0.870877
-0.960926
-1.0589
-1.16364
-1.27402
-1.38899
-1.50759
-1.629
-1.75248
-1.87739
-2.00313
-2.12913
-2.25482
-2.37961
-2.50291
-2.62409
-2.7425
-2.85749
-2.96838
-3.07448
-3.17513
-3.26966
-3.35741
-3.43777
-3.51013
-3.57392
-3.6286
-3.67367
-3.70866
-3.73317
-3.74681
-3.74927
-3.7403
-3.71968
-3.68725
-3.6429
-3.58659
-3.51833
-3.43823
-3.34646
-3.24327
-3.12902
-3.00413
-2.86914
-2.72468
-2.57147
-2.41034
-2.24219
-2.06804
-1.88899
-1.70622
-1.52097
-1.33455
-1.14832
-0.963636
-0.781904
-0.604502
-0.432782
-0.268046
-0.111527
0.0356314
0.172394
0.29785
0.411225
0.511894
0.599387
0.673391
0.733738
0.780469
0.813829
0.83421
0.842113
0.83816
0.823093
0.797755
0.763068
0.720007
0.669586
0.612831
0.550765
0.484389
0.414676
0.342558
0.268925
0.194627
0.120479
0.0472661
-0.0242427
-0.0932889
-0.159114
-0.220953
-0.278033
-0.329574
-0.374793
-0.412916
-0.443189
-0.464873
-0.477291
-0.479866
-0.472127
-0.453819
-0.424893
-0.385471
-0.336302
-0.27828
-0.211888
-0.138706
-0.0622204
0.0131135
0.0825682
0.141881
0.18848
0.222041
0.244027
0.256765
0.262589
0.263383
0.260568
0.255289
0.248555
0.241243
0.234036
0.227384
0.221539
0.216606
0.212598
0.209471
0.207146
0.205526
0.204507
0.203983
0.203855
0.20403
0.204425
0.204967
0.205596
0.206263
0.206926
0.207557
0.208132
0.208638
0.209066
0.209411
0.209675
0.209859
0.209971
0.210015
0.210001
0.209935
0.209828
0.209688
0.209525
0.209346
0.209162
0.208984
0.208821
0.208682
0.208573
0.208507
0.208409
0.208485
0.20751
-0.136942
-0.192801
-0.245387
-0.284
-0.313381
-0.337824
-0.359382
-0.379726
-0.400714
-0.424329
-0.452512
-0.487013
-0.529258
-0.580283
-0.640691
-0.710649
-0.789908
-0.877862
-0.973635
-1.07621
-1.18452
-1.29754
-1.41435
-1.53412
-1.65614
-1.77979
-1.90453
-2.02985
-2.1553
-2.28041
-2.4047
-2.5277
-2.64889
-2.76773
-2.88367
-2.99611
-3.10447
-3.20813
-3.30648
-3.39889
-3.48475
-3.56347
-3.63446
-3.69716
-3.75103
-3.79557
-3.83029
-3.85478
-3.86861
-3.87146
-3.86304
-3.8431
-3.81145
-3.76794
-3.7125
-3.64512
-3.56587
-3.47488
-3.3724
-3.25872
-3.13427
-2.99954
-2.85515
-2.70179
-2.54028
-2.37153
-2.19653
-2.01639
-1.83229
-1.64548
-1.45728
-1.26907
-1.08225
-0.898231
-0.718426
-0.544219
-0.376943
-0.21786
-0.0681436
0.0711461
0.199075
0.314851
0.417836
0.507553
0.583682
0.646074
0.694788
0.73009
0.752366
0.762129
0.760021
0.746806
0.723346
0.690579
0.649497
0.601122
0.546487
0.486613
0.422497
0.355098
0.285331
0.214063
0.142116
0.0702755
-0.000701512
-0.0700764
-0.137117
-0.201089
-0.26125
-0.316845
-0.367112
-0.411285
-0.448606
-0.478342
-0.499786
-0.512297
-0.515338
-0.508468
-0.491435
-0.464174
-0.426798
-0.379758
-0.323662
-0.259074
-0.187216
-0.110576
-0.0327715
0.0417334
0.108268
0.163161
0.204708
0.2333
0.250808
0.259664
0.262165
0.260199
0.255275
0.248636
0.241295
0.234015
0.227292
0.221397
0.216437
0.212421
0.209296
0.20698
0.205372
0.204366
0.203854
0.203736
0.203918
0.204318
0.204863
0.205493
0.206159
0.20682
0.207448
0.208021
0.208523
0.208948
0.20929
0.209551
0.209733
0.209842
0.209885
0.209868
0.209801
0.209692
0.209549
0.20938
0.209195
0.209001
0.208807
0.208621
0.208449
0.20829
0.20815
0.207949
0.207873
0.206736
-0.0367462
-0.0992168
-0.160083
-0.205341
-0.240562
-0.271068
-0.299505
-0.32796
-0.358599
-0.393574
-0.434828
-0.483925
-0.541922
-0.60932
-0.686099
-0.771805
-0.865665
-0.966714
-1.0739
-1.18618
-1.30257
-1.42222
-1.54436
-1.66835
-1.79364
-1.91975
-2.04623
-2.1727
-2.29875
-2.42399
-2.54802
-2.6704
-2.79069
-2.90842
-3.02307
-3.13413
-3.24106
-3.34329
-3.44025
-3.53137
-3.61608
-3.69379
-3.76394
-3.82599
-3.87941
-3.92368
-3.95833
-3.98292
-3.99701
-4.00026
-3.99236
-3.97303
-3.94205
-3.89926
-3.84455
-3.77787
-3.69927
-3.60886
-3.50684
-3.3935
-3.26921
-3.13446
-2.98984
-2.83603
-2.67382
-2.50412
-2.32792
-2.14632
-1.96051
-1.77176
-1.5814
-1.39084
-1.2015
-1.01483
-0.832271
-0.655247
-0.485125
-0.323202
-0.170682
-0.0286546
0.101923
0.220242
0.32565
0.417663
0.49596
0.560413
0.611103
0.648302
0.672402
0.683932
0.68356
0.672074
0.650358
0.619373
0.580126
0.533656
0.481002
0.423187
0.361205
0.296001
0.228471
0.159458
0.0897566
0.0201197
-0.0487274
-0.116076
-0.181221
-0.243453
-0.302049
-0.356271
-0.405372
-0.448598
-0.485206
-0.514474
-0.535717
-0.548312
-0.551744
-0.545583
-0.529571
-0.503613
-0.467776
-0.422358
-0.367815
-0.304691
-0.233963
-0.157487
-0.0781682
7.11697e-07
0.072332
0.134488
0.183638
0.21906
0.241921
0.254491
0.259301
0.258644
0.254407
0.248102
0.240909
0.233686
0.226987
0.221109
0.216172
0.212183
0.209088
0.206802
0.205223
0.204241
0.20375
0.203648
0.203843
0.20425
0.2048
0.20543
0.206094
0.206752
0.207374
0.20794
0.208436
0.208854
0.209189
0.209444
0.209621
0.209725
0.209763
0.209742
0.20967
0.209556
0.209407
0.209231
0.209036
0.208829
0.208616
0.208404
0.208195
0.207983
0.20777
0.207471
0.207259
0.206004
0.0329293
-0.0336569
-0.0992036
-0.14905
-0.189257
-0.225534
-0.260797
-0.297325
-0.337376
-0.383064
-0.43617
-0.497977
-0.569162
-0.649792
-0.739411
-0.837193
-0.942097
-1.05301
-1.16884
-1.2886
-1.41139
-1.53647
-1.66321
-1.79106
-1.91957
-2.04833
-2.17697
-2.30513
-2.43247
-2.55864
-2.68326
-2.80595
-2.92629
-3.04386
-3.1582
-3.26882
-3.37522
-3.47688
-3.57327
-3.66384
-3.74806
-3.82536
-3.89521
-3.95706
-4.01041
-4.05474
-4.08958
-4.11447
-4.12899
-4.13274
-4.12545
-4.10678
-4.07649
-4.03441
-3.9804
-3.91438
-3.83638
-3.74647
-3.64483
-3.53171
-3.40748
-3.27259
-3.12761
-2.9732
-2.81013
-2.63931
-2.46172
-2.27847
-2.09075
-1.89984
-1.70711
-1.51397
-1.32189
-1.13234
-0.946808
-0.766755
-0.593588
-0.428639
-0.273148
-0.128233
0.0051232
0.126093
0.234015
0.328393
0.408911
0.475465
0.52816
0.567261
0.593172
0.606447
0.60778
0.597985
0.577971
0.54872
0.511262
0.466648
0.415929
0.360131
0.30024
0.237192
0.171861
0.105065
0.0375672
-0.0299107
-0.0966762
-0.162051
-0.225358
-0.285909
-0.342999
-0.395905
-0.443892
-0.486215
-0.522139
-0.550951
-0.571974
-0.584595
-0.588307
-0.582681
-0.567444
-0.542469
-0.507779
-0.463577
-0.410217
-0.348188
-0.278309
-0.202043
-0.121761
-0.040959
0.0358856
0.104124
0.160115
0.202138
0.23056
0.247281
0.254883
0.25595
0.252719
0.246985
0.240114
0.233079
0.226498
0.220707
0.215841
0.211914
0.208875
0.206636
0.205097
0.204149
0.203684
0.203603
0.203811
0.204227
0.204779
0.205409
0.206068
0.206718
0.207332
0.207888
0.208374
0.208781
0.209107
0.209352
0.20952
0.209616
0.209647
0.209619
0.20954
0.209419
0.209262
0.209076
0.208869
0.208647
0.208413
0.208172
0.207924
0.20766
0.207375
0.206986
0.206654
0.205315
0.0677505
2.36523e-05
-0.0664981
-0.118591
-0.162393
-0.203443
-0.244642
-0.288267
-0.336485
-0.391235
-0.454047
-0.52591
-0.607199
-0.697692
-0.796699
-0.90322
-1.01612
-1.13424
-1.25652
-1.38201
-1.50991
-1.63952
-1.77027
-1.90169
-2.03335
-2.16489
-2.29595
-2.42621
-2.55535
-2.68303
-2.8089
-2.93259
-3.05373
-3.17191
-3.28669
-3.39763
-3.50425
-3.60606
-3.70255
-3.79322
-3.87754
-3.95497
-4.025
-4.08711
-4.14078
-4.18551
-4.22083
-4.24628
-4.26144
-4.26591
-4.25934
-4.24144
-4.21195
-4.17065
-4.1174
-4.0521
-3.97473
-3.88536
-3.78412
-3.67126
-3.5471
-3.41208
-3.26673
-3.11171
-2.94778
-2.77582
-2.59682
-2.41188
-2.22221
-2.02909
-1.83392
-1.63813
-1.44322
-1.25071
-1.06213
-0.87896
-0.702662
-0.534607
-0.376069
-0.228196
-0.0919966
0.031684
0.142168
0.238954
0.321742
0.390447
0.445185
0.486218
0.513968
0.529017
0.532083
0.524007
0.505722
0.478236
0.442596
0.39987
0.351115
0.297362
0.23959
0.178721
0.115609
0.0510444
-0.0142408
-0.0795582
-0.144248
-0.207661
-0.269145
-0.328033
-0.383636
-0.435243
-0.482125
-0.523545
-0.558772
-0.587095
-0.607843
-0.620401
-0.624262
-0.618993
-0.604302
-0.580028
-0.546154
-0.502817
-0.450295
-0.389023
-0.319714
-0.243585
-0.162634
-0.0799269
0.000365938
0.0735349
0.135424
0.183505
0.217365
0.238414
0.249123
0.252243
0.250294
0.245344
0.238957
0.232231
0.22586
0.220221
0.215474
0.211641
0.208679
0.206502
0.205013
0.204104
0.203669
0.203608
0.203829
0.204251
0.204804
0.205429
0.20608
0.20672
0.207321
0.207863
0.208334
0.208728
0.20904
0.209273
0.209429
0.209515
0.209535
0.209498
0.209411
0.209281
0.209114
0.208917
0.208696
0.208456
0.2082
0.207929
0.207641
0.207325
0.206972
0.206502
0.206062
0.204667
0.0702584
0.00462781
-0.0596443
-0.111741
-0.15748
-0.201858
-0.247565
-0.296731
-0.35133
-0.413049
-0.48315
-0.562369
-0.650865
-0.748265
-0.853778
-0.966361
-1.08487
-1.20817
-1.33524
-1.46516
-1.59715
-1.73058
-1.86488
-1.9996
-2.13432
-2.26867
-2.40233
-2.53495
-2.66624
-2.79584
-2.92344
-3.04867
-3.17116
-3.29052
-3.40634
-3.5182
-3.62562
-3.72816
-3.82533
-3.91662
-4.00155
-4.07959
-4.15025
-4.213
-4.26735
-4.31281
-4.34891
-4.37518
-4.3912
-4.39656
-4.39093
-4.37397
-4.34542
-4.30505
-4.25268
-4.18821
-4.11159
-4.02286
-3.92214
-3.80963
-3.68565
-3.55061
-3.40501
-3.2495
-3.08482
-2.91183
-2.73153
-2.54501
-2.35347
-2.15824
-1.96071
-1.76235
-1.56468
-1.36927
-1.17768
-0.991441
-0.81205
-0.64092
-0.479358
-0.328547
-0.189517
-0.0631357
0.0499044
0.149106
0.234188
0.305081
0.361891
0.404892
0.434529
0.451408
0.456273
0.449988
0.433514
0.407875
0.37414
0.333387
0.286683
0.235056
0.17948
0.12086
0.0600287
-0.00225307
-0.0652843
-0.12841
-0.191
-0.252436
-0.312086
-0.369301
-0.423406
-0.473697
-0.519453
-0.559939
-0.594425
-0.622201
-0.642593
-0.654983
-0.658857
-0.653771
-0.639413
-0.615591
-0.582251
-0.539477
-0.487495
-0.426691
-0.357706
-0.281605
-0.200136
-0.116026
-0.0331306
0.043932
0.11073
0.164141
0.203061
0.228375
0.242324
0.247707
0.247252
0.243263
0.237498
0.231188
0.225107
0.219681
0.215094
0.211386
0.20852
0.206418
0.204985
0.204117
0.203712
0.20367
0.203902
0.204327
0.204876
0.205493
0.206131
0.206755
0.207339
0.207863
0.208316
0.208692
0.208988
0.209205
0.209347
0.209419
0.209428
0.209379
0.209282
0.20914
0.208962
0.208753
0.208517
0.208258
0.207978
0.207677
0.20735
0.206983
0.206566
0.206023
0.205488
0.204058
0.048171
-0.0127259
-0.0721685
-0.12228
-0.168286
-0.214422
-0.263039
-0.316042
-0.375155
-0.4418
-0.516991
-0.601259
-0.694624
-0.796642
-0.906507
-1.02319
-1.1456
-1.27262
-1.40327
-1.53666
-1.67203
-1.80872
-1.94619
-2.08397
-2.22163
-2.3588
-2.49513
-2.63028
-2.76394
-2.89576
-3.02542
-3.15255
-3.2768
-3.39778
-3.51509
-3.62831
-3.73701
-3.84073
-3.93901
-4.03137
-4.11732
-4.19636
-4.26801
-4.33175
-4.38711
-4.43359
-4.47073
-4.49807
-4.51518
-4.52164
-4.51712
-4.50128
-4.47383
-4.43454
-4.38321
-4.31971
-4.24399
-4.15606
-4.05601
-3.94403
-3.82041
-3.68552
-3.53987
-3.38407
-3.21884
-3.04504
-2.86365
-2.67577
-2.4826
-2.28547
-2.08579
-1.88507
-1.68485
-1.48673
-1.29231
-1.10316
-0.920837
-0.746773
-0.582317
-0.428681
-0.286921
-0.157929
-0.0423996
0.059182
0.146546
0.219619
0.278508
0.323504
0.355073
0.373845
0.380587
0.376188
0.361626
0.337948
0.306234
0.267574
0.223036
0.173647
0.12037
0.0640926
0.00562257
-0.0543075
-0.115028
-0.175916
-0.236372
-0.295799
-0.353587
-0.409102
-0.461679
-0.51062
-0.555208
-0.594709
-0.628394
-0.655549
-0.675493
-0.687603
-0.691355
-0.686291
-0.672076
-0.64849
-0.615444
-0.572983
-0.521291
-0.460719
-0.391858
-0.315681
-0.233773
-0.148615
-0.0637828
0.0162752
0.0870256
0.144946
0.188374
0.217688
0.234835
0.242567
0.243737
0.240839
0.235808
0.230002
0.22428
0.219117
0.214727
0.211169
0.208415
0.206397
0.205025
0.2042
0.203823
0.203797
0.204035
0.204458
0.204998
0.205601
0.206221
0.206825
0.207386
0.207888
0.208319
0.208672
0.208948
0.209146
0.209271
0.209328
0.209322
0.209261
0.209151
0.208998
0.208808
0.208584
0.208333
0.208055
0.207751
0.207419
0.207053
0.206638
0.206163
0.205555
0.204935
0.203489
0.0116808
-0.0425256
-0.0952843
-0.141834
-0.186666
-0.233149
-0.283234
-0.338559
-0.400584
-0.470481
-0.549043
-0.636641
-0.733202
-0.838256
-0.951017
-1.07051
-1.19566
-1.32544
-1.45887
-1.59508
-1.7333
-1.87287
-2.01322
-2.15386
-2.29436
-2.4343
-2.57334
-2.71111
-2.84728
-2.9815
-3.11344
-3.24273
-3.36901
-3.49191
-3.61103
-3.72595
-3.83625
-3.9415
-4.04122
-4.13497
-4.22226
-4.30261
-4.37553
-4.44055
-4.49717
-4.54491
-4.58332
-4.61194
-4.63033
-4.63809
-4.63485
-4.62029
-4.5941
-4.55605
-4.50591
-4.44356
-4.3689
-4.28194
-4.18275
-4.0715
-3.94845
-3.81395
-3.66849
-3.51266
-3.34716
-3.17284
-2.99067
-2.80174
-2.60726
-2.40855
-2.20706
-2.00429
-1.80184
-1.60132
-1.40437
-1.21262
-1.02762
-0.850875
-0.683756
-0.527509
-0.383211
-0.251772
-0.133875
-0.0300028
0.0595726
0.134772
0.195712
0.242702
0.27623
0.296944
0.305636
0.303211
0.290667
0.269065
0.239495
0.203052
0.160804
0.113771
0.0629008
0.00906139
-0.0469648
-0.104475
-0.16283
-0.221436
-0.279719
-0.337104
-0.392998
-0.446779
-0.497787
-0.545333
-0.5887
-0.627156
-0.659969
-0.686423
-0.705827
-0.717549
-0.721054
-0.715865
-0.701628
-0.678094
-0.645145
-0.602791
-0.55119
-0.490664
-0.421775
-0.345445
-0.263156
-0.177222
-0.0909849
-0.00870173
0.0651098
0.126694
0.173967
0.206861
0.227014
0.23706
0.239904
0.238176
0.233957
0.228724
0.223415
0.218556
0.214395
0.211007
0.208379
0.206452
0.205144
0.204361
0.204008
0.203994
0.204232
0.204646
0.205172
0.205754
0.206351
0.206928
0.207462
0.207936
0.20834
0.208668
0.20892
0.209096
0.209201
0.209241
0.209219
0.209144
0.20902
0.208854
0.20865
0.208413
0.208144
0.207847
0.207519
0.207157
0.206755
0.206295
0.205766
0.2051
0.204406
0.202955
-0.0282305
-0.0743784
-0.11926
-0.161153
-0.203747
-0.249525
-0.300012
-0.356565
-0.420382
-0.492397
-0.573213
-0.663066
-0.761817
-0.868981
-0.983803
-1.10535
-1.23262
-1.3646
-1.50034
-1.63897
-1.77971
-1.9219
-2.06495
-2.20832
-2.35155
-2.49423
-2.63596
-2.77638
-2.91513
-3.05185
-3.18619
-3.3178
-3.4463
-3.57131
-3.69244
-3.80928
-3.92142
-4.02841
-4.12982
-4.22519
-4.31405
-4.39593
-4.47035
-4.53683
-4.59491
-4.6441
-4.68395
-4.71401
-4.73384
-4.74304
-4.74123
-4.72809
-4.70331
-4.66663
-4.61784
-4.55678
-4.48335
-4.39755
-4.29941
-4.1891
-4.06684
-3.93299
-3.78799
-3.63243
-3.46698
-3.29249
-3.1099
-2.9203
-2.7249
-2.52503
-2.32213
-2.11774
-1.91347
-1.71096
-1.51189
-1.3179
-1.13061
-0.951532
-0.782075
-0.623523
-0.476965
-0.3433
-0.223223
-0.117219
-0.0255714
0.0516463
0.114565
0.16351
0.198987
0.221663
0.232346
0.231961
0.221518
0.202087
0.174766
0.140648
0.100797
0.0562191
0.00784662
-0.043476
-0.0969933
-0.152031
-0.207981
-0.264273
-0.320356
-0.375673
-0.429643
-0.481653
-0.531052
-0.577153
-0.619243
-0.656591
-0.688461
-0.714133
-0.732908
-0.744141
-0.747284
-0.741845
-0.727445
-0.703811
-0.670798
-0.628392
-0.576727
-0.516111
-0.447092
-0.370567
-0.287966
-0.201487
-0.114296
-0.0304582
0.0455954
0.110005
0.1604
0.196352
0.219197
0.231418
0.235908
0.235377