/*--------------------------------*- C++ -*----------------------------------*\
  =========                 |
  \\      /  F ield         | OpenFOAM: The Open Source CFD Toolbox
   \\    /   O peration     | Website:  https://openfoam.org
    \\  /    A nd           | Version:  9
     \\/     M anipulation  |
\*---------------------------------------------------------------------------*/
FoamFile
{
    format      ascii;
    class       surfaceScalarField;
    location    "0.08";
    object      phi;
}
// * * * * * * * * * * * * * * * * * * * * * * * * * * * * * * * * * * * * * //

dimensions      [0 3 -1 0 0 0 0];

internalField   nonuniform List<scalar> 
24170
(
3.05131e-07
1.371e-08
2.65476e-07
3.96544e-08
2.34575e-07
3.09015e-08
2.09603e-07
2.49715e-08
1.90064e-07
1.9539e-08
1.74862e-07
1.52017e-08
1.61948e-07
1.29142e-08
1.49918e-07
1.20304e-08
1.3808e-07
1.18375e-08
1.2612e-07
1.19607e-08
1.13889e-07
1.22304e-08
1.01357e-07
1.25323e-08
8.86201e-08
1.2737e-08
7.59546e-08
1.26655e-08
6.39625e-08
1.19921e-08
5.41288e-08
9.83371e-09
5.13978e-08
2.73105e-09
1.69501e-08
3.44476e-08
3.46138e-07
9.29723e-09
3.36991e-07
4.88014e-08
3.21481e-07
4.64117e-08
3.05402e-07
4.10495e-08
2.89942e-07
3.49991e-08
2.75461e-07
2.96831e-08
2.61815e-07
2.65598e-08
2.48513e-07
2.53323e-08
2.35069e-07
2.52817e-08
2.21099e-07
2.59313e-08
2.06319e-07
2.70101e-08
1.90541e-07
2.83105e-08
1.73669e-07
2.9609e-08
1.55735e-07
3.0599e-08
1.36859e-07
3.08682e-08
1.17547e-07
2.91461e-08
9.62726e-08
2.4005e-08
4.71466e-08
6.60762e-08
3.6483e-07
1.07189e-08
3.66208e-07
4.74236e-08
3.60386e-07
5.22335e-08
3.51255e-07
5.0181e-08
3.4018e-07
4.60742e-08
3.28139e-07
4.17238e-08
3.15722e-07
3.89768e-08
3.02996e-07
3.80578e-08
2.89769e-07
3.8509e-08
2.75771e-07
3.99292e-08
2.60736e-07
4.20452e-08
2.44422e-07
4.46248e-08
2.26608e-07
4.7423e-08
2.0708e-07
5.01268e-08
1.85554e-07
5.23945e-08
1.61513e-07
5.31873e-08
1.32483e-07
5.30342e-08
7.87258e-08
1.00904e-07
3.91678e-07
1.15796e-08
3.94254e-07
4.48475e-08
3.92256e-07
5.42314e-08
3.86815e-07
5.56223e-08
3.788e-07
5.40887e-08
3.68989e-07
5.15349e-08
3.58041e-07
4.99253e-08
3.46241e-07
4.98571e-08
3.3359e-07
5.11608e-08
3.19938e-07
5.35813e-08
3.05075e-07
5.69074e-08
2.88762e-07
6.09386e-08
2.70719e-07
6.54661e-08
2.50599e-07
7.02468e-08
2.27927e-07
7.50662e-08
2.0184e-07
7.92741e-08
1.70542e-07
8.43324e-08
1.10224e-07
1.39044e-07
4.20638e-07
1.16547e-08
4.23181e-07
4.23037e-08
4.22899e-07
5.4514e-08
4.1964e-07
5.88816e-08
4.13793e-07
5.99348e-08
4.05832e-07
5.9496e-08
3.96297e-07
5.94601e-08
3.85524e-07
6.06309e-08
3.73608e-07
6.30767e-08
3.60491e-07
6.66981e-08
3.46023e-07
7.1375e-08
3.2999e-07
7.69721e-08
3.12106e-07
8.33502e-08
2.91988e-07
9.03645e-08
2.69133e-07
9.79218e-08
2.42717e-07
1.05689e-07
2.11688e-07
1.15362e-07
1.40892e-07
1.8102e-07
4.51099e-07
1.14644e-08
4.53516e-07
3.98865e-08
4.54114e-07
5.39158e-08
4.52234e-07
6.07616e-08
4.47948e-07
6.42212e-08
4.41481e-07
6.5963e-08
4.33224e-07
6.77176e-08
4.2348e-07
7.03744e-08
4.12383e-07
7.41736e-08
3.9993e-07
7.91514e-08
3.86022e-07
8.52827e-08
3.70485e-07
9.25092e-08
3.53065e-07
1.00771e-07
3.33415e-07
1.10014e-07
3.11105e-07
1.20232e-07
2.85505e-07
1.3129e-07
2.56135e-07
1.44732e-07
1.69805e-07
2.27222e-07
4.83493e-07
1.12438e-08
4.85734e-07
3.76451e-08
4.86768e-07
5.28814e-08
4.85766e-07
6.17639e-08
4.82603e-07
6.73844e-08
4.77329e-07
7.12365e-08
4.70196e-07
7.48507e-08
4.61447e-07
7.91237e-08
4.51214e-07
8.44068e-08
4.39524e-07
9.08409e-08
4.26323e-07
9.84837e-08
4.11482e-07
1.0735e-07
3.94805e-07
1.17448e-07
3.76028e-07
1.28792e-07
3.54846e-07
1.41414e-07
3.30863e-07
1.55272e-07
3.04022e-07
1.71573e-07
1.96147e-07
2.7768e-07
5.18165e-07
1.10372e-08
5.20159e-07
3.56508e-08
5.21359e-07
5.16815e-08
5.20903e-07
6.22197e-08
5.18548e-07
6.97393e-08
5.14227e-07
7.5558e-08
5.08075e-07
8.10022e-08
5.00271e-07
8.69284e-08
4.90928e-07
9.37495e-08
4.8009e-07
1.01679e-07
4.67737e-07
1.10837e-07
4.53791e-07
1.21296e-07
4.38127e-07
1.33112e-07
4.20586e-07
1.46333e-07
4.01008e-07
1.60992e-07
3.79222e-07
1.77058e-07
3.5545e-07
1.95344e-07
2.19335e-07
3.32263e-07
5.55328e-07
1.08428e-08
5.57032e-07
3.3947e-08
5.58234e-07
5.04789e-08
5.58106e-07
6.23481e-08
5.56336e-07
7.15096e-08
5.52781e-07
7.91127e-08
5.47492e-07
8.62908e-08
5.40587e-07
9.38339e-08
5.32158e-07
1.02179e-07
5.22256e-07
1.1158e-07
5.10892e-07
1.22201e-07
4.98041e-07
1.34147e-07
4.83654e-07
1.47498e-07
4.6768e-07
1.62306e-07
4.50098e-07
1.78575e-07
4.30922e-07
1.96234e-07
4.10536e-07
2.15731e-07
2.39003e-07
3.90868e-07
5.95161e-07
1.06594e-08
5.96571e-07
3.25367e-08
5.97686e-07
4.93641e-08
5.97745e-07
6.22897e-08
5.96406e-07
7.28485e-08
5.93484e-07
8.20339e-08
5.88971e-07
9.08047e-08
5.82934e-07
9.98708e-08
5.75448e-07
1.09665e-07
5.6657e-07
1.20458e-07
5.5634e-07
1.32431e-07
5.44783e-07
1.45703e-07
5.31927e-07
1.60355e-07
5.17818e-07
1.76416e-07
5.0255e-07
1.93843e-07
4.86276e-07
2.12507e-07
4.69447e-07
2.3256e-07
2.54956e-07
4.53494e-07
6.37855e-07
1.04853e-08
6.38996e-07
3.13961e-08
6.39986e-07
4.83738e-08
6.40152e-07
6.21241e-08
6.39149e-07
7.38509e-08
6.36777e-07
8.44066e-08
6.32984e-07
9.4597e-08
6.27808e-07
1.05047e-07
6.21309e-07
1.16164e-07
6.13552e-07
1.28215e-07
6.04605e-07
1.41378e-07
5.94541e-07
1.55767e-07
5.83453e-07
1.71442e-07
5.7147e-07
1.88398e-07
5.58774e-07
2.06539e-07
5.45604e-07
2.25676e-07
5.32417e-07
2.45747e-07
2.67108e-07
5.20265e-07
5.74231e-07
1.03376e-08
5.75015e-07
3.06119e-08
5.75763e-07
4.76265e-08
5.75965e-07
6.19213e-08
5.75345e-07
7.44709e-08
5.73735e-07
8.60168e-08
5.71076e-07
9.72559e-08
5.67383e-07
1.0874e-07
5.62702e-07
1.20845e-07
5.57097e-07
1.3382e-07
5.50645e-07
1.4783e-07
5.43441e-07
1.62972e-07
5.35604e-07
1.79279e-07
5.27293e-07
1.9671e-07
5.18702e-07
2.1513e-07
5.10076e-07
2.34303e-07
5.0177e-07
2.54053e-07
2.74405e-07
4.94473e-07
6.99977e-07
1.01766e-08
7.00742e-07
2.98463e-08
7.01518e-07
4.68507e-08
7.01828e-07
6.16114e-08
7.01381e-07
7.49177e-08
6.99992e-07
8.74054e-08
6.97589e-07
9.96592e-08
6.94178e-07
1.12151e-07
6.89812e-07
1.25211e-07
6.84574e-07
1.39059e-07
6.78573e-07
1.53832e-07
6.71948e-07
1.69597e-07
6.64873e-07
1.86353e-07
6.57564e-07
2.0402e-07
6.50274e-07
2.2242e-07
6.43291e-07
2.41286e-07
6.36989e-07
2.60354e-07
2.79451e-07
6.31944e-07
8.53276e-07
9.98579e-09
8.54046e-07
2.90754e-08
8.54905e-07
4.59919e-08
8.5542e-07
6.10971e-08
8.55305e-07
7.50327e-08
8.54372e-07
8.83376e-08
8.52543e-07
1.01488e-07
8.49825e-07
1.1487e-07
8.4628e-07
1.28756e-07
8.42016e-07
1.43322e-07
8.37182e-07
1.58666e-07
8.31962e-07
1.74816e-07
8.26585e-07
1.9173e-07
8.21315e-07
2.09289e-07
8.16449e-07
2.27287e-07
8.12296e-07
2.45438e-07
8.09211e-07
2.63439e-07
2.81024e-07
8.07638e-07
1.04018e-06
9.73027e-09
1.04105e-06
2.82067e-08
1.04214e-06
4.48952e-08
1.04309e-06
6.01549e-08
1.04361e-06
7.45103e-08
1.04354e-06
8.84095e-08
1.0428e-06
1.02228e-07
1.0414e-06
1.16263e-07
1.03944e-06
1.30721e-07
1.03704e-06
1.45722e-07
1.03439e-06
1.61317e-07
1.03171e-06
1.77489e-07
1.02929e-06
1.94157e-07
1.0274e-06
2.11173e-07
1.02637e-06
2.28318e-07
1.02649e-06
2.45315e-07
1.02807e-06
2.61864e-07
2.77685e-07
1.03141e-06
1.26807e-06
9.3436e-09
1.26925e-06
2.70269e-08
1.27091e-06
4.32301e-08
1.27273e-06
5.83386e-08
1.27445e-06
7.27851e-08
1.27593e-06
8.69285e-08
1.27711e-06
1.01051e-07
1.27801e-06
1.15361e-07
1.27874e-06
1.29991e-07
1.27946e-06
1.45003e-07
1.28038e-06
1.60396e-07
1.28176e-06
1.76112e-07
1.28388e-06
1.92041e-07
1.28703e-06
2.08019e-07
1.29151e-06
2.23838e-07
1.29758e-06
2.39249e-07
1.30545e-06
2.53991e-07
2.67824e-07
1.31531e-06
1.54596e-06
8.70205e-09
1.54784e-06
2.51465e-08
1.55068e-06
4.03941e-08
1.55416e-06
5.48562e-08
1.55805e-06
6.88896e-08
1.56222e-06
8.27622e-08
1.56661e-06
9.66637e-08
1.57125e-06
1.10716e-07
1.57627e-06
1.24977e-07
1.58182e-06
1.3945e-07
1.58813e-06
1.54085e-07
1.59545e-06
1.68794e-07
1.60404e-06
1.83451e-07
1.61416e-06
1.97896e-07
1.62605e-06
2.11946e-07
1.6399e-06
2.25399e-07
1.65584e-06
2.38053e-07
2.49732e-07
1.67393e-06
1.88487e-06
7.59082e-09
1.88809e-06
2.19293e-08
1.89308e-06
3.54047e-08
1.8995e-06
4.84388e-08
1.90707e-06
6.13137e-08
1.91564e-06
7.41978e-08
1.92512e-06
8.71838e-08
1.93553e-06
1.00305e-07
1.94696e-06
1.13545e-07
1.95956e-06
1.26848e-07
1.97352e-06
1.40129e-07
1.98904e-06
1.53278e-07
2.00632e-06
1.66167e-07
2.02556e-06
1.78655e-07
2.04692e-06
1.90593e-07
2.07048e-06
2.01832e-07
2.0963e-06
2.12232e-07
2.21684e-07
2.12435e-06
2.29827e-06
5.65572e-09
2.3038e-06
1.6395e-08
2.31243e-06
2.67748e-08
2.32365e-06
3.72193e-08
2.33706e-06
4.79106e-08
2.35236e-06
5.88909e-08
2.36941e-06
7.01351e-08
2.38814e-06
8.15729e-08
2.40858e-06
9.31059e-08
2.43081e-06
1.04621e-07
2.45494e-06
1.16e-07
2.4811e-06
1.27121e-07
2.5094e-06
1.37862e-07
2.53995e-06
1.48107e-07
2.5728e-06
1.57745e-07
2.60795e-06
1.66677e-07
2.64537e-06
1.74816e-07
1.82109e-07
2.68494e-06
1.68291e-06
3.82028e-09
1.68815e-06
1.11539e-08
1.69629e-06
1.86358e-08
1.70678e-06
2.67249e-08
1.71921e-06
3.5483e-08
1.73328e-06
4.48209e-08
1.74881e-06
5.46051e-08
1.76571e-06
6.46741e-08
1.78395e-06
7.48612e-08
1.80356e-06
8.50122e-08
1.82457e-06
9.49876e-08
1.84703e-06
1.04662e-07
1.87097e-06
1.13922e-07
1.89641e-06
1.2267e-07
1.92333e-06
1.30819e-07
1.95172e-06
1.38296e-07
1.98149e-06
1.45046e-07
1.51041e-07
2.01255e-06
1.46531e-06
1.96988e-09
1.47073e-06
5.73276e-09
1.47909e-06
1.02722e-08
1.48971e-06
1.61063e-08
1.5021e-06
2.30923e-08
1.51594e-06
3.09779e-08
1.53104e-06
3.95079e-08
1.5473e-06
4.84173e-08
1.56469e-06
5.74696e-08
1.58323e-06
6.64743e-08
1.60294e-06
7.52785e-08
1.62384e-06
8.37575e-08
1.64595e-06
9.18094e-08
1.66927e-06
9.93518e-08
1.69377e-06
1.06319e-07
1.71941e-06
1.1266e-07
1.74611e-06
1.18339e-07
1.23347e-07
1.77381e-06
1.27573e-06
2.52062e-10
1.28113e-06
3.31062e-10
1.28939e-06
2.01006e-09
1.29966e-06
5.8438e-09
1.31141e-06
1.13401e-08
1.32432e-06
1.80631e-08
1.33821e-06
2.56211e-08
1.353e-06
3.36265e-08
1.3687e-06
4.17723e-08
1.38533e-06
4.98408e-08
1.40294e-06
5.76749e-08
1.42154e-06
6.51578e-08
1.44114e-06
7.22029e-08
1.46175e-06
7.87463e-08
1.48333e-06
8.47415e-08
1.50583e-06
9.01564e-08
1.52919e-06
9.49726e-08
9.9192e-08
1.55335e-06
1.1105e-06
-1.15882e-09
1.11576e-06
-4.92306e-09
1.1237e-06
-5.93487e-09
1.13329e-06
-3.74495e-09
1.14402e-06
6.08966e-10
1.15557e-06
6.51348e-09
1.16778e-06
1.34129e-08
1.18064e-06
2.07709e-08
1.19419e-06
2.82153e-08
1.20852e-06
3.55177e-08
1.22366e-06
4.253e-08
1.23967e-06
4.91532e-08
1.25655e-06
5.53232e-08
1.27429e-06
6.09984e-08
1.29288e-06
6.61527e-08
1.31227e-06
7.07718e-08
1.33239e-06
7.48518e-08
7.84041e-08
1.35318e-06
9.66464e-07
-2.10117e-09
9.7151e-07
-9.96963e-09
9.78987e-07
-1.3411e-08
9.87676e-07
-1.24343e-08
9.97111e-07
-8.82575e-09
1.00698e-06
-3.35269e-09
1.01718e-06
3.20726e-09
1.02781e-06
1.01431e-08
1.03899e-06
1.70391e-08
1.05082e-06
2.3683e-08
1.0634e-06
2.99545e-08
1.07676e-06
3.5787e-08
1.09094e-06
4.11476e-08
1.10592e-06
4.60217e-08
1.12166e-06
5.04047e-08
1.13814e-06
5.42995e-08
1.15527e-06
5.77153e-08
6.06703e-08
1.17301e-06
8.40816e-07
-2.38204e-09
8.45718e-07
-1.48716e-08
8.52595e-07
-2.02877e-08
8.60151e-07
-1.99905e-08
8.67992e-07
-1.66663e-08
8.75846e-07
-1.12076e-08
8.83757e-07
-4.70293e-09
8.91939e-07
1.96072e-09
9.00605e-07
8.37335e-09
9.09908e-07
1.43794e-08
9.19951e-07
1.99121e-08
9.30785e-07
2.49529e-08
9.42423e-07
2.95098e-08
9.54846e-07
3.3598e-08
9.68017e-07
3.72343e-08
9.8188e-07
4.04363e-08
9.96371e-07
4.32245e-08
4.56208e-08
1.01142e-06
7.30822e-07
-1.47531e-09
7.35952e-07
-2.00021e-08
7.4208e-07
-2.64158e-08
7.48144e-07
-2.60542e-08
7.53945e-07
-2.24675e-08
7.59363e-07
-1.66257e-08
7.64666e-07
-1.00056e-08
7.7023e-07
-3.60371e-09
7.76342e-07
2.26191e-09
7.83178e-07
7.54279e-09
7.90837e-07
1.22531e-08
7.99354e-07
1.64364e-08
8.08716e-07
2.01474e-08
8.18885e-07
2.34292e-08
8.29803e-07
2.63158e-08
8.41405e-07
2.88351e-08
8.53615e-07
3.10139e-08
3.28751e-08
8.66361e-07
6.33879e-07
1.65258e-09
6.39956e-07
-2.60799e-08
6.4493e-07
-3.13892e-08
6.48846e-07
-2.99698e-08
6.51897e-07
-2.55193e-08
6.54311e-07
-1.9039e-08
6.56675e-07
-1.23702e-08
6.59513e-07
-6.44096e-09
6.63126e-07
-1.35153e-09
6.67667e-07
3.00165e-09
6.73192e-07
6.72838e-09
6.79688e-07
9.94047e-09
6.87098e-07
1.27373e-08
6.95348e-07
1.51787e-08
7.04358e-07
1.73059e-08
7.14045e-07
1.91481e-08
7.24327e-07
2.07319e-08
2.20791e-08
7.35123e-07
5.49539e-07
6.66028e-09
5.56356e-07
-3.28973e-08
5.58355e-07
-3.33878e-08
5.58572e-07
-3.01876e-08
5.57643e-07
-2.459e-08
5.56288e-07
-1.76836e-08
5.55395e-07
-1.14779e-08
5.55502e-07
-6.54746e-09
5.56798e-07
-2.64798e-09
5.59317e-07
4.82554e-10
5.63035e-07
3.01108e-09
5.6785e-07
5.12566e-09
5.73639e-07
6.94766e-09
5.80289e-07
8.52879e-09
5.87694e-07
9.90085e-09
5.95759e-07
1.10836e-08
6.04397e-07
1.20935e-08
1.29486e-08
6.13528e-07
4.87133e-07
2.28794e-09
4.85155e-07
-3.09192e-08
4.77984e-07
-2.62166e-08
4.6998e-07
-2.21838e-08
4.62513e-07
-1.71227e-08
4.56298e-07
-1.14691e-08
4.51927e-07
-7.10677e-09
4.49486e-07
-4.10655e-09
4.48801e-07
-1.96253e-09
4.49646e-07
-3.62638e-10
4.51899e-07
7.57968e-10
4.55319e-07
1.7054e-09
4.59719e-07
2.54776e-09
4.64955e-07
3.29255e-09
4.70912e-07
3.94394e-09
4.7749e-07
4.50639e-09
4.84602e-07
4.98089e-09
5.37247e-09
4.92178e-07
4.22556e-07
3.91636e-07
3.6542e-07
3.43236e-07
3.26113e-07
3.14644e-07
3.07537e-07
3.03431e-07
3.01468e-07
3.01106e-07
3.01864e-07
3.03569e-07
3.06117e-07
3.09409e-07
3.13353e-07
3.1786e-07
3.22841e-07
3.28213e-07
6.40502e-08
-6.40502e-08
1.43199e-07
-7.91489e-08
2.17863e-07
-7.46638e-08
2.83716e-07
-6.58535e-08
3.38958e-07
-5.5242e-08
3.82511e-07
-4.3553e-08
4.13635e-07
-3.11234e-08
4.32268e-07
-1.86329e-08
4.41186e-07
-8.91823e-09
4.38776e-07
2.40967e-09
4.2231e-07
1.64659e-08
3.9718e-07
2.51303e-08
3.6693e-07
3.02499e-08
3.3425e-07
3.26807e-08
3.00039e-07
3.42104e-08
2.63501e-07
3.65385e-08
2.23852e-07
3.96487e-08
1.81324e-07
4.25278e-08
1.33649e-07
4.76751e-08
7.69193e-08
5.67298e-08
9.27567e-09
6.76437e-08
-7.49086e-08
8.41843e-08
-1.75866e-07
1.00957e-07
-2.92554e-07
1.16688e-07
-4.26195e-07
1.33641e-07
-5.74501e-07
1.48307e-07
-7.34265e-07
1.59764e-07
-9.01888e-07
1.67623e-07
-1.07368e-06
1.71792e-07
-1.24612e-06
1.72445e-07
-1.41608e-06
1.69956e-07
-1.58091e-06
1.64824e-07
-1.73851e-06
1.576e-07
-1.88734e-06
1.4883e-07
-2.02636e-06
1.3902e-07
-2.15495e-06
1.28599e-07
-2.27287e-06
1.17918e-07
-2.38012e-06
1.07247e-07
-2.47689e-06
9.67741e-08
-2.56351e-06
8.66193e-08
-2.64036e-06
7.68456e-08
-2.70783e-06
6.74718e-08
-2.76631e-06
5.84846e-08
-2.81616e-06
4.98497e-08
-2.85769e-06
4.15216e-08
-2.89114e-06
3.3451e-08
-2.91672e-06
2.55846e-08
-2.9346e-06
1.78756e-08
-2.94492e-06
1.03263e-08
-2.94787e-06
2.95082e-09
-2.94446e-06
-3.41592e-09
-2.93533e-06
-9.12441e-09
-2.92091e-06
-1.4424e-08
-2.90141e-06
-1.95012e-08
-2.87693e-06
-2.44756e-08
-2.84753e-06
-2.94018e-08
-2.81323e-06
-3.43062e-08
-2.77403e-06
-3.91997e-08
-2.72994e-06
-4.40847e-08
-2.68098e-06
-4.89584e-08
-2.62717e-06
-5.38146e-08
-2.56852e-06
-5.86445e-08
-2.50509e-06
-6.34366e-08
-2.43691e-06
-6.81781e-08
-2.36405e-06
-7.28539e-08
-2.28661e-06
-7.74476e-08
-2.20467e-06
-8.19414e-08
-2.11835e-06
-8.63163e-08
-2.0278e-06
-9.05524e-08
-1.93317e-06
-9.46289e-08
-1.83464e-06
-9.85248e-08
-1.73242e-06
-1.02219e-07
-1.62674e-06
-1.0569e-07
-1.51782e-06
-1.08917e-07
-1.40594e-06
-1.1188e-07
-1.29138e-06
-1.14561e-07
-1.17443e-06
-1.16943e-07
-1.05542e-06
-1.19011e-07
-9.34673e-07
-1.20751e-07
-8.1252e-07
-1.22153e-07
-6.89312e-07
-1.23208e-07
-5.65405e-07
-1.23907e-07
-4.41166e-07
-1.24239e-07
-3.16982e-07
-1.24184e-07
-1.933e-07
-1.23682e-07
-7.08205e-08
-1.2248e-07
5.01787e-08
-1.20999e-07
1.69782e-07
-1.19604e-07
2.87581e-07
-1.17799e-07
4.03126e-07
-1.15545e-07
5.1611e-07
-1.12984e-07
6.26265e-07
-1.10155e-07
7.33351e-07
-1.07086e-07
8.37152e-07
-1.03801e-07
9.37475e-07
-1.00323e-07
1.03415e-06
-9.66757e-08
1.12703e-06
-9.28818e-08
1.216e-06
-8.89639e-08
1.30094e-06
-8.4942e-08
1.38177e-06
-8.08334e-08
1.45842e-06
-7.66508e-08
1.53082e-06
-7.24023e-08
1.59891e-06
-6.80899e-08
1.66262e-06
-6.37092e-08
1.72187e-06
-5.92488e-08
1.77656e-06
-5.46901e-08
1.82657e-06
-5.00056e-08
1.87173e-06
-4.51574e-08
1.91183e-06
-4.01007e-08
1.94659e-06
-3.476e-08
1.97556e-06
-2.89756e-08
1.99821e-06
-2.26457e-08
2.0134e-06
-1.51882e-08
2.01829e-06
-4.89326e-09
2.00745e-06
1.08364e-08
1.97935e-06
2.81027e-08
1.93218e-06
4.71732e-08
1.86412e-06
6.80565e-08
1.7771e-06
8.70228e-08
1.67641e-06
1.00692e-07
1.54652e-06
1.29887e-07
1.4e-06
1.46522e-07
1.26568e-06
1.34319e-07
1.13683e-06
1.28846e-07
1.01325e-06
1.23582e-07
8.99646e-07
1.13604e-07
7.94765e-07
1.04881e-07
6.98292e-07
9.64728e-08
6.12072e-07
8.62199e-08
5.37804e-07
7.42687e-08
4.76375e-07
6.14281e-08
4.27396e-07
4.89794e-08
3.89118e-07
3.82782e-08
3.58862e-07
3.02557e-08
3.33792e-07
2.50702e-08
3.11756e-07
2.20359e-08
2.91624e-07
2.01326e-08
2.73078e-07
1.8546e-08
2.56229e-07
1.68487e-08
2.41295e-07
1.49343e-08
2.28429e-07
1.2866e-08
2.17671e-07
1.07571e-08
2.08961e-07
8.71084e-09
2.0216e-07
6.80105e-09
1.97086e-07
5.07334e-09
1.93535e-07
3.55172e-09
1.91288e-07
2.24613e-09
1.90131e-07
1.15735e-09
1.89886e-07
2.45128e-10
1.90359e-07
-4.73207e-10
1.91426e-07
-1.06693e-09
1.92943e-07
-1.51684e-09
1.94778e-07
-1.83473e-09
1.96816e-07
-2.03844e-09
1.98963e-07
-2.14651e-09
2.01139e-07
-2.1767e-09
2.03285e-07
-2.14534e-09
2.05352e-07
-2.06699e-09
2.07306e-07
-1.95416e-09
2.09123e-07
-1.8171e-09
2.10787e-07
-1.66381e-09
2.12287e-07
-1.50021e-09
2.13617e-07
-1.3305e-09
2.14775e-07
-1.15772e-09
2.15759e-07
-9.84049e-10
2.1657e-07
-8.1109e-10
2.1721e-07
-6.39752e-10
2.1768e-07
-4.69809e-10
2.1798e-07
-2.99785e-10
2.18105e-07
-1.25211e-10
2.18033e-07
7.17735e-11
2.17739e-07
2.93951e-10
2.17213e-07
5.26109e-10
2.16406e-07
8.07068e-10
2.15237e-07
1.16928e-09
2.13565e-07
1.67171e-09
2.11121e-07
2.4438e-09
2.07353e-07
3.76837e-09
2.00858e-07
6.49464e-09
1.34869e-08
1.87371e-07
7.66308e-08
-1.40681e-07
1.54016e-07
-1.56534e-07
2.16126e-07
-1.36774e-07
2.62772e-07
-1.12499e-07
2.95359e-07
-8.78288e-08
3.1526e-07
-6.34541e-08
3.23803e-07
-3.96661e-08
3.2195e-07
-1.67805e-08
3.08144e-07
4.88792e-09
2.84943e-07
2.56112e-08
2.56573e-07
4.48352e-08
2.20132e-07
6.15714e-08
1.74505e-07
7.58773e-08
1.18718e-07
8.8468e-08
5.23336e-08
1.00594e-07
-2.48957e-08
1.13768e-07
-1.13969e-07
1.28722e-07
-2.1832e-07
1.46879e-07
-3.39546e-07
1.68901e-07
-4.775e-07
1.94683e-07
-6.32661e-07
2.22805e-07
-7.99601e-07
2.51124e-07
-9.75973e-07
2.7733e-07
-1.15841e-06
2.99129e-07
-1.34082e-06
3.16043e-07
-1.51952e-06
3.27014e-07
-1.69121e-06
3.31451e-07
-1.85316e-06
3.29567e-07
-2.00339e-06
3.22029e-07
-2.14074e-06
3.09789e-07
-2.26471e-06
2.93931e-07
-2.37543e-06
2.75543e-07
-2.47344e-06
2.55614e-07
-2.5596e-06
2.34984e-07
-2.63489e-06
2.14315e-07
-2.70038e-06
1.94087e-07
-2.75709e-06
1.74623e-07
-2.80595e-06
1.56109e-07
-2.8478e-06
1.38625e-07
-2.88335e-06
1.22176e-07
-2.91322e-06
1.06713e-07
-2.93791e-06
9.21578e-08
-2.95784e-06
7.8415e-08
-2.97338e-06
6.53869e-08
-2.98484e-06
5.29809e-08
-2.9925e-06
4.11145e-08
-2.99664e-06
2.97213e-08
-2.99752e-06
1.87612e-08
-2.99542e-06
8.22448e-09
-2.99054e-06
-1.93162e-09
-2.98213e-06
-1.18181e-08
-2.96963e-06
-2.1626e-08
-2.95266e-06
-3.13951e-08
-2.93104e-06
-4.11219e-08
-2.9047e-06
-5.08212e-08
-2.87359e-06
-6.05074e-08
-2.83771e-06
-7.01897e-08
-2.79704e-06
-7.98699e-08
-2.75158e-06
-8.95436e-08
-2.70133e-06
-9.92009e-08
-2.64632e-06
-1.08827e-07
-2.58656e-06
-1.18402e-07
-2.5221e-06
-1.27905e-07
-2.45297e-06
-1.37307e-07
-2.37924e-06
-1.4658e-07
-2.301e-06
-1.55689e-07
-2.21834e-06
-1.64601e-07
-2.13138e-06
-1.73277e-07
-2.04026e-06
-1.81676e-07
-1.94513e-06
-1.89759e-07
-1.84617e-06
-1.97483e-07
-1.74358e-06
-2.04805e-07
-1.63759e-06
-2.11683e-07
-1.52843e-06
-2.18076e-07
-1.41636e-06
-2.23944e-07
-1.30167e-06
-2.2925e-07
-1.18466e-06
-2.33958e-07
-1.06563e-06
-2.38038e-07
-9.4492e-07
-2.41462e-07
-8.22865e-07
-2.44208e-07
-6.99818e-07
-2.46255e-07
-5.76135e-07
-2.47589e-07
-4.52179e-07
-2.48195e-07
-3.28308e-07
-2.48055e-07
-2.04858e-07
-2.47132e-07
-8.19657e-08
-2.45372e-07
3.9937e-08
-2.42902e-07
1.60189e-07
-2.39855e-07
2.78543e-07
-2.36154e-07
3.94793e-07
-2.31794e-07
5.08662e-07
-2.26853e-07
6.1989e-07
-2.21382e-07
7.28229e-07
-2.15426e-07
8.33458e-07
-2.0903e-07
9.35376e-07
-2.02241e-07
1.03381e-06
-1.95108e-07
1.1286e-06
-1.87677e-07
1.21963e-06
-1.79992e-07
1.30678e-06
-1.72095e-07
1.38997e-06
-1.64019e-07
1.46911e-06
-1.5579e-07
1.54413e-06
-1.47423e-07
1.61496e-06
-1.38923e-07
1.68154e-06
-1.30282e-07
1.74377e-06
-1.21479e-07
1.80155e-06
-1.12477e-07
1.85477e-06
-1.03225e-07
1.90327e-06
-9.36543e-08
1.94685e-06
-8.3678e-08
1.98526e-06
-7.31741e-08
2.01826e-06
-6.19709e-08
2.04551e-06
-4.98942e-08
2.06704e-06
-3.67231e-08
2.08417e-06
-2.20225e-08
2.09897e-06
-3.9682e-09
2.10994e-06
1.71328e-08
2.11459e-06
4.25288e-08
2.11011e-06
7.2534e-08
2.091e-06
1.06131e-07
2.04762e-06
1.44072e-07
1.98211e-06
1.95397e-07
1.88832e-06
2.40316e-07
1.75803e-06
2.64607e-07
1.60544e-06
2.81432e-07
1.44115e-06
2.87872e-07
1.27508e-06
2.79678e-07
1.11797e-06
2.61991e-07
9.75695e-07
2.38747e-07
8.5072e-07
2.11194e-07
7.44179e-07
1.8081e-07
6.56141e-07
1.49467e-07
5.85558e-07
1.19562e-07
5.30037e-07
9.37988e-08
4.86056e-07
7.42363e-08
4.49868e-07
6.12587e-08
4.18472e-07
5.34318e-08
3.90127e-07
4.84774e-08
3.6423e-07
4.44428e-08
3.40835e-07
4.02442e-08
3.2019e-07
3.55796e-08
3.02469e-07
3.05862e-08
2.87688e-07
2.55387e-08
2.75713e-07
2.06856e-08
2.66318e-07
1.61964e-08
2.59225e-07
1.21657e-08
2.54145e-07
8.63248e-09
2.50791e-07
5.59985e-09
2.48901e-07
3.0469e-09
2.48217e-07
9.2929e-10
2.48521e-07
-7.76745e-10
2.49576e-07
-2.12202e-09
2.51198e-07
-3.1394e-09
2.53231e-07
-3.86748e-09
2.55539e-07
-4.34685e-09
2.5801e-07
-4.6172e-09
2.6055e-07
-4.71604e-09
2.63082e-07
-4.67793e-09
2.65549e-07
-4.53385e-09
2.67906e-07
-4.3107e-09
2.70119e-07
-4.03099e-09
2.72168e-07
-3.71273e-09
2.74038e-07
-3.36972e-09
2.75719e-07
-3.0121e-09
2.77209e-07
-2.64715e-09
2.78505e-07
-2.28002e-09
2.79608e-07
-1.91418e-09
2.8052e-07
-1.5515e-09
2.81242e-07
-1.19185e-09
2.81775e-07
-8.32739e-10
2.82116e-07
-4.66696e-10
2.82264e-07
-7.58244e-11
2.82215e-07
3.42513e-10
2.8193e-07
8.10878e-10
2.81372e-07
1.36548e-09
2.80475e-07
2.0664e-09
2.79136e-07
3.01046e-09
2.77176e-07
4.40368e-09
2.74346e-07
6.59864e-09
2.69999e-07
1.08417e-08
1.97697e-08
2.63716e-07
6.17579e-08
-2.02439e-07
1.05258e-07
-2.00034e-07
1.35353e-07
-1.66869e-07
1.54075e-07
-1.31221e-07
1.62106e-07
-9.58595e-08
1.59934e-07
-6.1283e-08
1.47994e-07
-2.77261e-08
1.26599e-07
4.61478e-09
9.57946e-08
3.56923e-08
5.59578e-08
6.5448e-08
7.02841e-09
9.37646e-08
-5.20982e-08
1.20698e-07
-1.22838e-07
1.46617e-07
-2.06645e-07
1.72275e-07
-3.04714e-07
1.98663e-07
-4.177e-07
2.26754e-07
-5.46112e-07
2.57134e-07
-6.89197e-07
2.89964e-07
-8.44705e-07
3.2441e-07
-1.00884e-06
3.58814e-07
-1.17684e-06
3.90809e-07
-1.34369e-06
4.17973e-07
-1.5049e-06
4.38535e-07
-1.65717e-06
4.51405e-07
-1.79756e-06
4.56435e-07
-1.9245e-06
4.53946e-07
-2.03774e-06
4.44693e-07
-2.13795e-06
4.29779e-07
-2.22638e-06
4.10458e-07
-2.30457e-06
3.87982e-07
-2.37414e-06
3.63499e-07
-2.43658e-06
3.37981e-07
-2.49316e-06
3.12201e-07
-2.54491e-06
2.86733e-07
-2.59257e-06
2.61974e-07
-2.63666e-06
2.3817e-07
-2.67748e-06
2.1545e-07
-2.71522e-06
1.93851e-07
-2.74995e-06
1.73351e-07
-2.78166e-06
1.53883e-07
-2.8103e-06
1.35359e-07
-2.83582e-06
1.17676e-07
-2.85814e-06
1.00729e-07
-2.87717e-06
8.44163e-08
-2.89283e-06
6.86431e-08
-2.90504e-06
5.33226e-08
-2.91369e-06
3.8377e-08
-2.91867e-06
2.37371e-08
-2.91978e-06
9.33592e-09
-2.9168e-06
-4.90967e-09
-2.90952e-06
-1.91012e-08
-2.89785e-06
-3.32986e-08
-2.88173e-06
-4.75145e-08
-2.86109e-06
-6.17551e-08
-2.83589e-06
-7.60237e-08
-2.80608e-06
-9.03222e-08
-2.77162e-06
-1.04648e-07
-2.73249e-06
-1.18995e-07
-2.68869e-06
-1.33348e-07
-2.6402e-06
-1.4769e-07
-2.58703e-06
-1.61994e-07
-2.5292e-06
-1.76232e-07
-2.46674e-06
-1.90367e-07
-2.39969e-06
-2.04358e-07
-2.32811e-06
-2.18161e-07
-2.25207e-06
-2.31726e-07
-2.17167e-06
-2.45e-07
-2.08702e-06
-2.57925e-07
-1.99826e-06
-2.70443e-07
-1.90552e-06
-2.82491e-07
-1.809e-06
-2.94007e-07
-1.70888e-06
-3.04926e-07
-1.60538e-06
-3.15185e-07
-1.49873e-06
-3.24722e-07
-1.3892e-06
-3.33477e-07
-1.27706e-06
-3.41393e-07
-1.1626e-06
-3.48418e-07
-1.04613e-06
-3.54504e-07
-9.27985e-07
-3.59609e-07
-8.08495e-07
-3.63698e-07
-6.88008e-07
-3.66742e-07
-5.66881e-07
-3.68717e-07
-4.4547e-07
-3.69606e-07
-3.24127e-07
-3.69398e-07
-2.03175e-07
-3.68083e-07
-8.28783e-08
-3.65669e-07
3.64221e-08
-3.62202e-07
1.54304e-07
-3.57737e-07
2.70451e-07
-3.52301e-07
3.84597e-07
-3.4594e-07
4.96458e-07
-3.38715e-07
6.05766e-07
-3.30689e-07
7.1227e-07
-3.2193e-07
8.15747e-07
-3.12506e-07
9.15996e-07
-3.02491e-07
1.01284e-06
-2.91955e-07
1.10614e-06
-2.80972e-07
1.19575e-06
-2.69608e-07
1.28158e-06
-2.57922e-07
1.36353e-06
-2.45967e-07
1.44152e-06
-2.33779e-07
1.51548e-06
-2.21383e-07
1.58534e-06
-2.08786e-07
1.65103e-06
-1.95976e-07
1.71248e-06
-1.82921e-07
1.76957e-06
-1.69572e-07
1.8222e-06
-1.55854e-07
1.87022e-06
-1.41674e-07
1.91346e-06
-1.26912e-07
1.9517e-06
-1.11417e-07
1.98473e-06
-9.50044e-08
2.01229e-06
-7.74538e-08
2.0341e-06
-5.85361e-08
2.05001e-06
-3.79269e-08
2.06086e-06
-1.48201e-08
2.06652e-06
1.14746e-08
2.06716e-06
4.18925e-08
2.06237e-06
7.73189e-08
2.05027e-06
1.18236e-07
2.02836e-06
1.65976e-07
1.99987e-06
2.23886e-07
1.95528e-06
2.84908e-07
1.88023e-06
3.39662e-07
1.77502e-06
3.86642e-07
1.64292e-06
4.19966e-07
1.49053e-06
4.32073e-07
1.32984e-06
4.22675e-07
1.1726e-06
3.95993e-07
1.02702e-06
3.56768e-07
8.98064e-07
3.09771e-07
7.8797e-07
2.59561e-07
6.96931e-07
2.106e-07
6.2345e-07
1.67281e-07
5.64697e-07
1.32989e-07
5.17174e-07
1.08782e-07
4.77574e-07
9.30312e-08
4.43478e-07
8.25731e-08
4.13529e-07
7.43922e-08
3.87168e-07
6.6605e-08
3.64242e-07
5.85055e-08
3.44699e-07
5.01297e-08
3.28432e-07
4.18052e-08
3.15246e-07
3.38722e-08
3.04868e-07
2.65741e-08
2.96989e-07
2.00451e-08
2.91287e-07
1.43346e-08
2.8745e-07
9.4366e-09
2.85186e-07
5.31117e-09
2.84216e-07
1.89854e-09
2.84297e-07
-8.57859e-10
2.85201e-07
-3.02523e-09
2.86731e-07
-4.66983e-09
2.88721e-07
-5.85729e-09
2.91026e-07
-6.65227e-09
2.93526e-07
-7.1167e-09
2.96118e-07
-7.30868e-09
2.98722e-07
-7.28169e-09
3.01272e-07
-7.08378e-09
3.03718e-07
-6.75697e-09
3.06024e-07
-6.33683e-09
3.08164e-07
-5.85235e-09
3.1012e-07
-5.32621e-09
3.11884e-07
-4.77546e-09
3.13449e-07
-4.21249e-09
3.14815e-07
-3.64592e-09
3.15982e-07
-3.08141e-09
3.16952e-07
-2.52187e-09
3.17728e-07
-1.96721e-09
3.18309e-07
-1.41366e-09
3.18694e-07
-8.51969e-10
3.18885e-07
-2.66643e-10
3.18868e-07
3.59434e-10
3.18621e-07
1.05745e-09
3.18111e-07
1.87613e-09
3.17284e-07
2.89345e-09
3.16061e-07
4.23322e-09
3.14328e-07
6.13657e-09
3.11939e-07
8.98805e-09
3.08806e-07
1.39741e-08
2.29885e-08
3.05587e-07
2.85523e-08
-2.30991e-07
3.52975e-08
-2.0678e-07
3.4168e-08
-1.6574e-07
2.6167e-08
-1.2322e-07
1.10131e-08
-8.07056e-08
-1.17164e-08
-3.85534e-08
-4.24982e-08
3.05566e-09
-8.18634e-08
4.398e-08
-1.30362e-07
8.41907e-08
-1.88604e-07
1.23691e-07
-2.57393e-07
1.62553e-07
-3.37665e-07
2.0097e-07
-4.3034e-07
2.39292e-07
-5.36027e-07
2.77962e-07
-6.547e-07
3.17336e-07
-7.85385e-07
3.57438e-07
-9.2598e-07
3.97729e-07
-1.07303e-06
4.37012e-07
-1.22212e-06
4.73498e-07
-1.36839e-06
5.05092e-07
-1.50743e-06
5.29845e-07
-1.6359e-06
5.46445e-07
-1.7518e-06
5.54438e-07
-1.85458e-06
5.54184e-07
-1.9447e-06
5.46551e-07
-2.02344e-06
5.32689e-07
-2.09262e-06
5.13874e-07
-2.15421e-06
4.91362e-07
-2.21004e-06
4.66294e-07
-2.2617e-06
4.3964e-07
-2.31038e-06
4.12182e-07
-2.35693e-06
3.84524e-07
-2.40183e-06
3.57107e-07
-2.44534e-06
3.30236e-07
-2.48747e-06
3.04106e-07
-2.52813e-06
2.78828e-07
-2.56712e-06
2.54442e-07
-2.60421e-06
2.30944e-07
-2.63915e-06
2.08294e-07
-2.6717e-06
1.86428e-07
-2.70161e-06
1.65271e-07
-2.72867e-06
1.44739e-07
-2.75269e-06
1.24744e-07
-2.77348e-06
1.05203e-07
-2.79087e-06
8.60331e-08
-2.8047e-06
6.7159e-08
-2.81483e-06
4.85094e-08
-2.82112e-06
3.00185e-08
-2.8234e-06
1.16236e-08
-2.82157e-06
-6.73971e-09
-2.81554e-06
-2.51315e-08
-2.80525e-06
-4.3588e-08
-2.79064e-06
-6.21236e-08
-2.77166e-06
-8.07437e-08
-2.74823e-06
-9.94477e-08
-2.72032e-06
-1.18231e-07
-2.68789e-06
-1.37083e-07
-2.6509e-06
-1.55988e-07
-2.60932e-06
-1.74924e-07
-2.56315e-06
-1.93862e-07
-2.51237e-06
-2.12767e-07
-2.45701e-06
-2.31595e-07
-2.39708e-06
-2.50299e-07
-2.33261e-06
-2.68824e-07
-2.26367e-06
-2.87108e-07
-2.19031e-06
-3.05085e-07
-2.11262e-06
-3.22684e-07
-2.03072e-06
-3.39828e-07
-1.94473e-06
-3.56437e-07
-1.85479e-06
-3.72429e-07
-1.76108e-06
-3.87718e-07
-1.66378e-06
-4.02221e-07
-1.56312e-06
-4.1585e-07
-1.45932e-06
-4.28524e-07
-1.35263e-06
-4.40161e-07
-1.24334e-06
-4.50686e-07
-1.13173e-06
-4.60028e-07
-1.01811e-06
-4.68122e-07
-9.02805e-07
-4.74914e-07
-7.8615e-07
-4.80353e-07
-6.68488e-07
-4.84403e-07
-5.5017e-07
-4.87034e-07
-4.31548e-07
-4.88228e-07
-3.1297e-07
-4.87977e-07
-1.94768e-07
-4.86285e-07
-7.72612e-08
-4.83176e-07
3.9229e-08
-4.78692e-07
1.54369e-07
-4.72877e-07
2.67843e-07
-4.65775e-07
3.79353e-07
-4.5745e-07
4.88612e-07
-4.47974e-07
5.95353e-07
-4.3743e-07
6.9933e-07
-4.25907e-07
8.00323e-07
-4.13499e-07
8.98136e-07
-4.00303e-07
9.92599e-07
-3.86419e-07
1.08357e-06
-3.7194e-07
1.17092e-06
-3.56958e-07
1.25455e-06
-3.41552e-07
1.33437e-06
-3.25789e-07
1.41031e-06
-3.0972e-07
1.4823e-06
-2.93376e-07
1.55028e-06
-2.76766e-07
1.61418e-06
-2.59876e-07
1.67393e-06
-2.42664e-07
1.72942e-06
-2.25065e-07
1.78055e-06
-2.06987e-07
1.82719e-06
-1.88311e-07
1.86917e-06
-1.68891e-07
1.9063e-06
-1.48551e-07
1.93838e-06
-1.27084e-07
1.96518e-06
-1.0425e-07
1.98643e-06
-7.97891e-08
2.00189e-06
-5.33898e-08
2.01157e-06
-2.44951e-08
2.01546e-06
7.58281e-09
2.01372e-06
4.36319e-08
2.00649e-06
8.45511e-08
1.9936e-06
1.31122e-07
1.97513e-06
1.84448e-07
1.95256e-06
2.46461e-07
1.92237e-06
3.1509e-07
1.87692e-06
3.85117e-07
1.8108e-06
4.5276e-07
1.71986e-06
5.10907e-07
1.60297e-06
5.48958e-07
1.46551e-06
5.60141e-07
1.31745e-06
5.44046e-07
1.16946e-06
5.04764e-07
1.0302e-06
4.49033e-07
9.05346e-07
3.8441e-07
7.97735e-07
3.18212e-07
7.07913e-07
2.57103e-07