/*--------------------------------*- C++ -*----------------------------------*\
  =========                 |
  \\      /  F ield         | OpenFOAM: The Open Source CFD Toolbox
   \\    /   O peration     | Website:  https://openfoam.org
    \\  /    A nd           | Version:  9
     \\/     M anipulation  |
\*---------------------------------------------------------------------------*/
FoamFile
{
    format      ascii;
    class       volVectorField;
    location    "0.08";
    object      U;
}
// * * * * * * * * * * * * * * * * * * * * * * * * * * * * * * * * * * * * * //

dimensions      [0 1 -1 0 0 0 0];

internalField   nonuniform List<vector> 
12225
(
(0.932893 -0.309901 0)
(0.896603 -0.087686 0)
(0.797547 -0.00152089 0)
(0.694843 0.012349 0)
(0.622091 0.0103147 0)
(0.570408 0.00758657 0)
(0.52784 0.00634132 0)
(0.489143 0.00607296 0)
(0.451964 0.00622083 0)
(0.414847 0.00652302 0)
(0.377019 0.00688237 0)
(0.338201 0.00723671 0)
(0.298513 0.007497 0)
(0.25839 0.00752309 0)
(0.219509 0.00701005 0)
(0.182475 0.00541322 0)
(0.163567 -0.00283505 0)
(0.126095 0.0267482 0)
(1.02576 0.0788884 0)
(1.00355 0.0668384 0)
(0.965915 0.0362296 0)
(0.917553 0.026538 0)
(0.870337 0.0223117 0)
(0.826992 0.0190609 0)
(0.78624 0.0172558 0)
(0.747045 0.0168188 0)
(0.708194 0.017277 0)
(0.668356 0.0182884 0)
(0.626501 0.0196638 0)
(0.581934 0.0212563 0)
(0.534261 0.0228838 0)
(0.483264 0.0242511 0)
(0.429541 0.0248983 0)
(0.371985 0.0231963 0)
(0.316066 0.0154576 0)
(0.233198 0.0408781 0)
(1.00008 0.022502 0)
(0.999542 0.0358062 0)
(0.994758 0.0346691 0)
(0.973818 0.0333273 0)
(0.944935 0.0308999 0)
(0.913058 0.0282956 0)
(0.879585 0.0269466 0)
(0.845275 0.0270488 0)
(0.810012 0.0282761 0)
(0.773064 0.0303539 0)
(0.73364 0.0331114 0)
(0.691037 0.0363952 0)
(0.64465 0.0400074 0)
(0.593831 0.0436305 0)
(0.538209 0.0468219 0)
(0.475756 0.0481109 0)
(0.406518 0.0468645 0)
(0.313438 0.0785246 0)
(0.998249 0.00606005 0)
(1.00086 0.0284768 0)
(1.00437 0.0361657 0)
(0.994741 0.0381052 0)
(0.976654 0.0376631 0)
(0.953611 0.0365175 0)
(0.926971 0.0362156 0)
(0.897904 0.0372433 0)
(0.866831 0.0395107 0)
(0.83348 0.0428719 0)
(0.79734 0.0472197 0)
(0.757829 0.0524414 0)
(0.714312 0.0583852 0)
(0.665974 0.0648111 0)
(0.61198 0.071431 0)
(0.550188 0.0772583 0)
(0.479345 0.0835246 0)
(0.389206 0.119353 0)
(0.999187 0.0058163 0)
(1.00219 0.0278918 0)
(1.00743 0.0372932 0)
(1.00331 0.0411429 0)
(0.991951 0.0427294 0)
(0.975332 0.0433597 0)
(0.954356 0.0444771 0)
(0.930102 0.0467538 0)
(0.903153 0.050307 0)
(0.873503 0.0551328 0)
(0.840865 0.0612176 0)
(0.804799 0.0685277 0)
(0.764732 0.0770056 0)
(0.719865 0.0865525 0)
(0.669271 0.0970896 0)
(0.611111 0.108145 0)
(0.544232 0.121779 0)
(0.462732 0.15936 0)
(0.999572 0.00706462 0)
(1.00241 0.0270269 0)
(1.00776 0.0372716 0)
(1.00659 0.0428994 0)
(0.999505 0.0464263 0)
(0.987482 0.0489007 0)
(0.971024 0.0516338 0)
(0.950958 0.0553778 0)
(0.927842 0.0604005 0)
(0.901793 0.0668259 0)
(0.872673 0.0747412 0)
(0.840177 0.0842086 0)
(0.803844 0.0952837 0)
(0.763001 0.108021 0)
(0.716855 0.122527 0)
(0.664038 0.138722 0)
(0.603839 0.158789 0)
(0.53325 0.19735 0)
(0.999625 0.00727324 0)
(1.00215 0.0255472 0)
(1.00706 0.036645 0)
(1.00742 0.0438561 0)
(1.00303 0.04913 0)
(0.994281 0.0533921 0)
(0.981368 0.0578054 0)
(0.964859 0.0631314 0)
(0.945207 0.0697367 0)
(0.922568 0.0778475 0)
(0.896898 0.0876426 0)
(0.868006 0.0992774 0)
(0.835564 0.112914 0)
(0.799083 0.128734 0)
(0.758006 0.146972 0)
(0.71146 0.16778 0)
(0.659203 0.193087 0)
(0.600029 0.232468 0)
(0.999663 0.00708755 0)
(1.00178 0.0240797 0)
(1.006 0.0358273 0)
(1.00708 0.0443282 0)
(1.00438 0.0511298 0)
(0.997958 0.0570602 0)
(0.987817 0.0631287 0)
(0.974297 0.0700669 0)
(0.957734 0.0782995 0)
(0.93828 0.0881265 0)
(0.91595 0.0998001 0)
(0.890648 0.113553 0)
(0.862181 0.12963 0)
(0.830259 0.148299 0)
(0.794582 0.169855 0)
(0.754717 0.194546 0)
(0.710803 0.223883 0)
(0.662621 0.263892 0)
(0.999738 0.00691217 0)
(1.00142 0.0228393 0)
(1.00489 0.0349843 0)
(1.0062 0.0445066 0)
(1.00456 0.0526264 0)
(0.999813 0.0600739 0)
(0.991849 0.0677142 0)
(0.980842 0.0762295 0)
(0.967024 0.0860722 0)
(0.95053 0.0975888 0)
(0.931411 0.111083 0)
(0.909653 0.126841 0)
(0.885186 0.14516 0)
(0.857906 0.166347 0)
(0.827747 0.190699 0)
(0.794616 0.218465 0)
(0.758913 0.2507 0)
(0.720861 0.291025 0)
(0.999819 0.00678555 0)
(1.00112 0.0218208 0)
(1.00386 0.0341841 0)
(1.00515 0.0445123 0)
(1.00417 0.0537561 0)
(1.00066 0.0625541 0)
(0.994429 0.0716443 0)
(0.985555 0.0816511 0)
(0.974187 0.093031 0)
(0.960443 0.106154 0)
(0.944401 0.121352 0)
(0.926113 0.13894 0)
(0.90562 0.159233 0)
(0.88297 0.182534 0)
(0.858278 0.209105 0)
(0.831693 0.239131 0)
(0.803749 0.273259 0)
(0.774807 0.313522 0)
(0.999887 0.006677 0)
(1.00088 0.0209936 0)
(1.00299 0.0334639 0)
(1.00416 0.0444234 0)
(1.0036 0.0546119 0)
(1.00102 0.0645872 0)
(0.996219 0.0749797 0)
(0.989189 0.0863527 0)
(0.980032 0.0991497 0)
(0.968852 0.113744 0)
(0.955753 0.130475 0)
(0.940842 0.149659 0)
(0.924244 0.171599 0)
(0.906125 0.196567 0)
(0.886723 0.224758 0)
(0.866333 0.256271 0)
(0.845535 0.291419 0)
(0.824664 0.331225 0)
(0.999933 0.00657507 0)
(1.00071 0.0203769 0)
(1.00237 0.0328803 0)
(1.00341 0.0442876 0)
(1.00315 0.055193 0)
(1.00127 0.0660898 0)
(0.997581 0.0775261 0)
(0.992054 0.0900099 0)
(0.984755 0.103961 0)
(0.975787 0.119741 0)
(0.96527 0.137677 0)
(0.953351 0.15807 0)
(0.940213 0.181192 0)
(0.926093 0.207264 0)
(0.911296 0.236414 0)
(0.896181 0.268655 0)
(0.881316 0.304075 0)
(0.866969 0.343106 0)
(0.999969 0.00647877 0)
(1.0006 0.019867 0)
(1.00192 0.032361 0)
(1.00287 0.0441127 0)
(1.00287 0.0556069 0)
(1.00161 0.0672805 0)
(0.998935 0.0796119 0)
(0.994787 0.0930548 0)
(0.989223 0.107998 0)
(0.982345 0.124781 0)
(0.974288 0.143708 0)
(0.965229 0.165048 0)
(0.955389 0.189031 0)
(0.945042 0.215821 0)
(0.934525 0.245477 0)
(0.924211 0.277933 0)
(0.914616 0.313116 0)
(0.905926 0.351081 0)
(0.999999 0.00636792 0)
(1.00053 0.01937 0)
(1.00162 0.0318111 0)
(1.00257 0.043834 0)
(1.00288 0.0558403 0)
(1.00232 0.0682163 0)
(1.00073 0.081372 0)
(0.998065 0.0957022 0)
(0.994382 0.111553 0)
(0.989783 0.129229 0)
(0.984416 0.148993 0)
(0.978475 0.17107 0)
(0.972203 0.195633 0)
(0.965887 0.222777 0)
(0.959858 0.252492 0)
(0.95447 0.284642 0)
(0.950145 0.319033 0)
(0.94698 0.355482 0)
(1.00002 0.0062297 0)
(1.00054 0.0188488 0)
(1.00156 0.0311681 0)
(1.00264 0.0433499 0)
(1.00341 0.055736 0)
(1.00366 0.0686666 0)
(1.00329 0.0824876 0)
(1.00227 0.0975304 0)
(1.00064 0.114089 0)
(0.998509 0.132415 0)
(0.996039 0.15272 0)
(0.993427 0.175169 0)
(0.990911 0.199867 0)
(0.988765 0.226841 0)
(0.987284 0.256017 0)
(0.986764 0.287209 0)
(0.98752 0.320156 0)
(0.989566 0.354565 0)
(1.00004 0.00603117 0)
(1.00063 0.0182043 0)
(1.00179 0.0302718 0)
(1.00323 0.0424322 0)
(1.00468 0.0549844 0)
(1.00597 0.0682234 0)
(1.00703 0.0824339 0)
(1.00785 0.0978813 0)
(1.00847 0.114796 0)
(1.00901 0.13337 0)
(1.00962 0.153749 0)
(1.01047 0.176031 0)
(1.01179 0.200255 0)
(1.0138 0.226384 0)
(1.01675 0.254301 0)
(1.02085 0.283795 0)
(1.02631 0.314588 0)
(1.03308 0.346367 0)
(1.00007 0.00571223 0)
(1.00085 0.0172413 0)
(1.00238 0.0288089 0)
(1.00448 0.0406493 0)
(1.0069 0.0530288 0)
(1.00953 0.0661942 0)
(1.0123 0.080369 0)
(1.01522 0.0957501 0)
(1.01832 0.1125 0)
(1.02171 0.13074 0)
(1.02551 0.15055 0)
(1.02987 0.171963 0)
(1.03497 0.194958 0)
(1.04097 0.219455 0)
(1.04805 0.245312 0)
(1.05633 0.272322 0)
(1.06595 0.300229 0)
(1.07681 0.328756 0)
(1.0001 0.00516697 0)
(1.0012 0.015625 0)
(1.00336 0.026241 0)
(1.00643 0.0372722 0)
(1.01019 0.0489547 0)
(1.01449 0.0614824 0)
(1.01928 0.0750148 0)
(1.02455 0.0896784 0)
(1.03033 0.105564 0)
(1.03668 0.122725 0)
(1.0437 0.141178 0)
(1.05149 0.1609 0)
(1.06016 0.181827 0)
(1.06981 0.203855 0)
(1.08056 0.226837 0)
(1.09246 0.250589 0)
(1.10556 0.274899 0)
(1.11976 0.299554 0)
(1.00015 0.00422788 0)
(1.00171 0.0128333 0)
(1.00476 0.0217223 0)
(1.00913 0.0311669 0)
(1.01454 0.0413648 0)
(1.02081 0.0524494 0)
(1.02786 0.0645119 0)
(1.03565 0.0776064 0)
(1.04417 0.0917535 0)
(1.05344 0.106944 0)
(1.06351 0.123141 0)
(1.07444 0.140281 0)
(1.08627 0.158276 0)
(1.09907 0.177013 0)
(1.11286 0.19636 0)
(1.12766 0.216164 0)
(1.14345 0.236264 0)
(1.16017 0.256513 0)
(1.00019 0.00302467 0)
(1.0022 0.00921094 0)
(1.00616 0.0158151 0)
(1.01177 0.0231561 0)
(1.01865 0.031392 0)
(1.02657 0.0405915 0)
(1.03538 0.0507771 0)
(1.04503 0.0619337 0)
(1.05547 0.0740193 0)
(1.06672 0.0869746 0)
(1.07879 0.100727 0)
(1.0917 0.115189 0)
(1.10549 0.130265 0)
(1.12016 0.145846 0)
(1.13573 0.161816 0)
(1.15218 0.178053 0)
(1.16947 0.194433 0)
(1.18755 0.210854 0)
(1.00021 0.00185355 0)
(1.00257 0.00566829 0)
(1.00728 0.0100959 0)
(1.01387 0.0155169 0)
(1.02182 0.0220203 0)
(1.03082 0.0295978 0)
(1.04072 0.0382013 0)
(1.05144 0.0477476 0)
(1.06293 0.0581388 0)
(1.07519 0.0692764 0)
(1.08825 0.0810632 0)
(1.10211 0.093401 0)
(1.1168 0.106191 0)
(1.13231 0.119332 0)
(1.14865 0.132724 0)
(1.16578 0.146265 0)
(1.18366 0.15986 0)
(1.20225 0.173431 0)
(1.0002 0.000713852 0)
(1.00282 0.00208479 0)
(1.00822 0.00435477 0)
(1.01565 0.00798611 0)
(1.0244 0.0129373 0)
(1.03412 0.0191042 0)
(1.04465 0.026357 0)
(1.05591 0.0345328 0)
(1.06786 0.0434758 0)
(1.08054 0.0530541 0)
(1.09396 0.0631534 0)
(1.10816 0.0736701 0)
(1.12314 0.0845085 0)
(1.13892 0.0955786 0)
(1.15547 0.106794 0)
(1.17278 0.118074 0)
(1.19078 0.129342 0)
(1.20944 0.140541 0)
(1.00012 -0.000320016 0)
(1.00287 -0.00145201 0)
(1.00893 -0.00123031 0)
(1.01708 0.000840939 0)
(1.02636 0.0044945 0)
(1.03644 0.00952723 0)
(1.04716 0.0157127 0)
(1.05845 0.022789 0)
(1.07034 0.0305409 0)
(1.08289 0.0388105 0)
(1.09615 0.0474745 0)
(1.11018 0.0564313 0)
(1.12499 0.0655944 0)
(1.1406 0.0748879 0)
(1.15698 0.0842428 0)
(1.1741 0.0935952 0)
(1.19192 0.102888 0)
(1.21038 0.11208 0)
(0.999972 -0.00117863 0)
(1.00264 -0.00495785 0)
(1.00938 -0.00657959 0)
(1.01811 -0.00574485 0)
(1.02761 -0.00308033 0)
(1.03762 0.00113893 0)
(1.04802 0.00656577 0)
(1.05878 0.0128142 0)
(1.07004 0.0196127 0)
(1.08192 0.0267896 0)
(1.09453 0.0342244 0)
(1.10795 0.0418265 0)
(1.1222 0.0495267 0)
(1.1373 0.0572674 0)
(1.15321 0.0649988 0)
(1.1699 0.0726756 0)
(1.18731 0.0802584 0)
(1.2054 0.0877191 0)
(0.999676 -0.00149251 0)
(1.00202 -0.00832901 0)
(1.00959 -0.0116105 0)
(1.01868 -0.0116342 0)
(1.0279 -0.00959343 0)
(1.03722 -0.00582884 0)
(1.04658 -0.0008512 0)
(1.05609 0.0048102 0)
(1.06605 0.0108423 0)
(1.07669 0.0170817 0)
(1.08817 0.0234271 0)
(1.10057 0.0298124 0)
(1.11392 0.036194 0)
(1.12823 0.0425385 0)
(1.14346 0.0488166 0)
(1.15955 0.0550019 0)
(1.17643 0.0610716 0)
(1.19404 0.0670085 0)
(0.998782 -0.00020449 0)
(1.00062 -0.0108502 0)
(1.00943 -0.015921 0)
(1.01846 -0.0165616 0)
(1.02648 -0.0147589 0)
(1.03404 -0.0110733 0)
(1.0413 -0.0062824 0)
(1.04862 -0.00104997 0)
(1.0565 0.00431229 0)
(1.06529 0.00968069 0)
(1.07516 0.0149939 0)
(1.0862 0.0202253 0)
(1.09841 0.0253674 0)
(1.11176 0.0304132 0)
(1.12618 0.0353547 0)
(1.14158 0.040182 0)
(1.15786 0.0448873 0)
(1.17497 0.049462 0)
(0.996535 0.00166621 0)
(0.997884 -0.0123985 0)
(1.00825 -0.0188943 0)
(1.01617 -0.0200396 0)
(1.02128 -0.018136 0)
(1.0253 -0.0141973 0)
(1.02891 -0.0094439 0)
(1.03283 -0.00462404 0)
(1.03778 3.34275e-05 0)
(1.04412 0.00449003 0)
(1.052 0.00873962 0)
(1.06144 0.0128115 0)
(1.07236 0.0167394 0)
(1.08467 0.0205416 0)
(1.09824 0.0242273 0)
(1.11294 0.0277983 0)
(1.12862 0.0312571 0)
(1.14524 0.0346017 0)
(0.995245 -0.00879639 0)
(0.996007 -0.019714 0)
(1.00498 -0.0219387 0)
(1.00805 -0.02191 0)
(1.00675 -0.0193711 0)
(1.00427 -0.0149544 0)
(1.00204 -0.0102461 0)
(1.00116 -0.00596676 0)
(1.00234 -0.0021597 0)
(1.00575 0.00127024 0)
(1.01138 0.00437436 0)
(1.0191 0.00725566 0)
(1.0287 0.00998269 0)
(1.03995 0.0125901 0)
(1.05265 0.0150949 0)
(1.06663 0.0175033 0)
(1.0817 0.0198201 0)
(1.09781 0.0220455 0)
(1.01494 -0.0667533 0)
(1.00925 -0.0617097 0)
(0.998407 -0.0344541 0)
(0.981843 -0.0235375 0)
(0.965034 -0.0184515 0)
(0.950799 -0.0136222 0)
(0.939872 -0.00925493 0)
(0.932769 -0.00573726 0)
(0.929557 -0.00291063 0)
(0.929765 -0.000628409 0)
(0.933055 0.00132536 0)
(0.939007 0.00308729 0)
(0.947169 0.00472527 0)
(0.957196 0.0062737 0)
(0.968826 0.00774616 0)
(0.981847 0.00914641 0)
(0.996038 0.0104744 0)
(1.01136 0.0117295 0)
(0.96613 0.257721 0)
(0.970205 0.0890439 0)
(0.914429 0.0113566 0)
(0.843922 -0.00623472 0)
(0.79224 -0.00706432 0)
(0.75947 -0.00467653 0)
(0.738607 -0.00253717 0)
(0.725669 -0.00111707 0)
(0.718628 -0.000161725 0)
(0.716196 0.000419607 0)
(0.716786 0.00091983 0)
(0.719751 0.00141142 0)
(0.724843 0.00189953 0)
(0.73183 0.00238322 0)
(0.740475 0.00285544 0)
(0.750567 0.00330938 0)
(0.761871 0.00373577 0)
(0.774293 0.00413705 0)
(0.0449742 -0.0431356 -5.87291e-21)
(0.0973245 -0.0701309 4.20803e-21)
(0.157791 -0.0773543 0)
(0.222812 -0.07653 0)
(0.278466 -0.0713821 0)
(0.322718 -0.0629399 -3.24143e-21)
(0.356086 -0.0514892 0)
(0.378384 -0.0392183 0)
(0.390275 -0.035838 0)
(0.394697 -0.0251272 0)
(0.385911 0.00199627 4.96242e-21)
(0.366554 0.0159572 0)
(0.341304 0.0225281 0)
(0.313084 0.0233183 0)
(0.283718 0.0224678 0)
(0.253057 0.0232691 5.45409e-21)
(0.216972 0.0262475 0)
(0.181999 0.0245719 0)
(0.141387 0.0247772 0)
(0.0962813 0.0309612 0)
(0.0437231 0.0349303 0)
(-0.0273358 0.0521272 0)
(-0.103735 0.0654734 0)
(-0.207253 0.0765125 6.78184e-21)
(-0.318306 0.0961011 -6.57997e-21)
(-0.445738 0.115212 6.43103e-21)
(-0.585178 0.131956 6.35339e-21)
(-0.733457 0.14526 0)
(-0.887219 0.15452 0)
(-1.04318 0.159589 -6.55158e-21)
(-1.19833 0.160692 -6.73001e-21)
(-1.35006 0.158313 0)
(-1.49625 0.153081 0)
(-1.63526 0.14567 -7.42103e-21)
(-1.76595 0.136722 0)
(-1.8876 0.126804 0)
(-1.9998 0.116374 8.13214e-21)
(-2.10247 0.105786 0)
(-2.1957 0.0952864 8.53609e-21)
(-2.27971 0.0850374 1.74168e-20)
(-2.35483 0.0751281 0)
(-2.42139 0.0655951 0)
(-2.47975 0.0564397 0)
(-2.53022 0.0476441 0)
(-2.57309 0.0391865 0)
(-2.60859 0.0310539 1.856e-20)
(-2.63692 0.0232557 1.85956e-20)
(-2.65829 0.015861 1.85884e-20)
(-2.67285 0.00902941 0)
(-2.6806 0.00298652 -1.8447e-20)
(-2.68162 -0.0021451 0)
(-2.67749 -0.00646963 1.8073e-20)
(-2.66846 -0.010362 1.78052e-20)
(-2.65475 -0.014041 0)
(-2.63644 -0.0176128 0)
(-2.61361 -0.0211241 0)
(-2.58627 -0.0245984 1.61974e-20)
(-2.55443 -0.0280467 0)
(-2.51809 -0.0314736 0)
(-2.47724 -0.0348802 0)
(-2.43189 -0.038265 0)
(-2.38205 -0.0416246 0)
(-2.32773 -0.0449545 0)
(-2.26897 -0.048249 0)
(-2.20581 -0.0515014 0)
(-2.1383 -0.0547042 -9.44933e-21)
(-2.06653 -0.0578493 0)
(-1.99057 -0.0609281 0)
(-1.91054 -0.0639315 6.29492e-21)
(-1.82656 -0.0668503 5.15555e-21)
(-1.73879 -0.0696753 0)
(-1.64738 -0.0723974 -2.75969e-21)
(-1.55253 -0.0750078 1.50917e-21)
(-1.45443 -0.0774984 0)
(-1.35333 -0.0798619 1.07989e-21)
(-1.24945 -0.082092 0)
(-1.14307 -0.0841837 0)
(-1.03446 -0.0861333 -5.1233e-21)
(-0.923905 -0.0879387 0)
(-0.811718 -0.0895989 7.87224e-21)
(-0.698208 -0.0911136 0)
(-0.583695 -0.0924815 -1.06161e-20)
(-0.468511 -0.0936945 -1.19724e-20)
(-0.353018 -0.0947211 -1.33104e-20)
(-0.237654 -0.0954469 -2.9249e-20)
(-0.122938 -0.0955073 3.18182e-20)
(-0.00937247 -0.0941582 0)
(0.1031 -0.0912179 0)
(0.214384 -0.0875769 0)
(0.324045 -0.0838205 2.91925e-20)
(0.43165 -0.0800882 2.74307e-20)
(0.536908 -0.0763964 -2.56295e-20)
(0.639581 -0.0727492 0)
(0.739451 -0.0691498 2.19774e-20)
(0.83632 -0.0656017 2.01553e-20)
(0.930013 -0.0621088 1.83519e-20)
(1.02037 -0.0586756 0)
(1.10726 -0.0553069 0)
(1.19057 -0.0520065 0)
(1.2702 -0.0487772 1.15114e-20)
(1.34606 -0.0456199 0)
(1.41809 -0.0425329 0)
(1.4862 -0.0395124 -6.96028e-21)
(1.55033 -0.0365515 0)
(1.61041 -0.0336401 0)
(1.66633 -0.0307653 -3.04211e-21)
(1.71798 -0.0279104 0)
(1.76521 -0.0250535 0)
(1.80783 -0.0221742 -1.5135e-22)
(1.8456 -0.0192339 -1.0375e-21)
(1.87821 -0.0161369 0)
(1.90498 -0.0129003 2.51106e-21)
(1.92558 -0.00924936 0)
(1.93922 -0.00348375 -3.53741e-21)
(1.93885 0.00474036 0)
(1.92255 0.0148208 -4.03444e-21)
(1.8893 0.0260179 -4.08521e-21)
(1.83569 0.0390158 0)
(1.76304 0.0487697 0)
(1.67662 0.0540944 0)
(1.55825 0.108158 0)
(1.43025 0.139009 0)
(1.29621 0.0973093 0)
(1.16359 0.0735286 0)
(1.0427 0.065951 4.41972e-22)
(0.930615 0.0539094 -1.25865e-21)
(0.824163 0.0416996 0)
(0.726019 0.0323858 0)
(0.63725 0.0236183 0)
(0.559063 0.015665 0)
(0.493123 0.00970252 -8.18521e-21)
(0.439963 0.00628488 0)
(0.398442 0.00512097 9.2197e-21)
(0.366105 0.00530839 -9.48828e-21)
(0.340004 0.00589527 0)
(0.317616 0.00633257 0)
(0.297384 0.00644946 0)
(0.278702 0.00624502 9.34111e-21)
(0.261558 0.00578321 9.1439e-21)
(0.246168 0.00514772 0)
(0.232734 0.00441748 8.72658e-21)
(0.221359 0.00365615 8.53363e-21)
(0.212035 0.00291038 -8.36116e-21)
(0.204664 0.00221188 0)
(0.199091 0.00158066 0)
(0.195128 0.00102817 -7.98388e-21)
(0.192568 0.00056052 0)
(0.191201 0.0001811 0)
(0.190829 -0.00011532 0)
(0.191261 -0.000379831 0)
(0.192367 -0.000594004 7.70698e-21)
(0.194001 -0.000751103 7.67855e-21)
(0.196028 -0.000857279 0)
(0.198323 -0.000920495 7.63121e-21)
(0.200782 -0.00094862 0)
(0.203318 -0.000948964 0)
(0.205861 -0.000928091 7.5618e-21)
(0.208356 -0.000891699 0)
(0.210763 -0.000844527 7.50686e-21)
(0.21305 -0.000790298 0)
(0.215198 -0.000731739 0)
(0.217193 -0.000670709 7.40642e-21)
(0.219026 -0.00060842 0)
(0.220691 -0.000545684 7.32867e-21)
(0.222185 -0.000483092 0)
(0.223509 -0.000421069 0)
(0.224662 -0.000359766 0)
(0.225645 -0.000298718 -7.15685e-21)
(0.226459 -0.000236325 0)
(0.227106 -0.000165996 7.06797e-21)
(0.227562 -9.87272e-05 0)
(0.227802 -5.11951e-05 0)
(0.227814 8.16075e-06 0)
(0.227565 9.11548e-05 0)
(0.226992 0.000208107 0)
(0.225961 0.00037872 0)
(0.224364 0.000636418 0)
(0.221365 0.00108915 -1.3564e-20)
(0.218083 0.00195515 0)
(0.203743 0.00448326 0)
(0.0425063 -0.204027 1.71998e-20)
(0.108357 -0.235558 -1.28351e-20)
(0.165962 -0.210114 0)
(0.214276 -0.176145 6.50337e-21)
(0.250046 -0.140836 0)
(0.273491 -0.1056 2.875e-21)
(0.286137 -0.0710558 -6.00373e-21)
(0.28906 -0.0376852 -6.07359e-21)
(0.282249 -0.00610022 0)
(0.265623 0.0232424 -6.58453e-21)
(0.242928 0.0481037 -3.36624e-21)
(0.214362 0.0677205 0)
(0.178146 0.0821756 0)
(0.133016 0.0926426 0)
(0.0788509 0.101275 0)
(0.014426 0.11079 -3.81716e-21)
(-0.0590258 0.121199 0)
(-0.145096 0.136021 6.89531e-21)
(-0.245237 0.157409 0)
(-0.361097 0.186655 0)
(-0.493826 0.223536 -6.34605e-21)
(-0.637929 0.263409 0)
(-0.793026 0.302426 6.1966e-21)
(-0.955737 0.336604 -3.23541e-21)
(-1.12022 0.365249 3.23261e-21)
(-1.28367 0.386215 -3.26881e-21)
(-1.44233 0.398253 -3.34917e-21)
(-1.59345 0.401443 0)
(-1.7349 0.396537 0)
(-1.86525 0.384735 3.84911e-21)
(-1.98376 0.36747 -4.51703e-21)
(-2.09028 0.346221 0)
(-2.18515 0.322367 0)
(-2.26902 0.297105 4.88655e-21)
(-2.34273 0.271405 0)
(-2.40722 0.246002 0)
(-2.46344 0.221414 -5.66417e-21)
(-2.51226 0.197972 0)
(-2.55448 0.175852 6.38676e-21)
(-2.59078 0.155115 -1.25636e-20)
(-2.62174 0.135739 0)
(-2.64787 0.117645 0)
(-2.66956 0.10072 -2.71691e-20)
(-2.68716 0.0848358 -2.74979e-20)
(-2.70096 0.0698592 -2.77389e-20)
(-2.71124 0.0556639 1.41409e-20)
(-2.71822 0.0421376 -1.37845e-20)
(-2.72214 0.0292082 -4.1715e-20)
(-2.72322 0.016887 2.78364e-20)
(-2.7217 0.00528533 1.36166e-20)
(-2.71773 -0.0055007 0)
(-2.71012 -0.0155587 -1.32381e-20)
(-2.69849 -0.0251291 1.34308e-20)
(-2.68269 -0.0343693 0)
(-2.66259 -0.0433823 0)
(-2.63816 -0.0522218 0)
(-2.60934 -0.0609165 -1.15695e-20)
(-2.57613 -0.0694787 0)
(-2.53851 -0.0779108 2.19399e-20)
(-2.49646 -0.0862083 0)
(-2.44999 -0.0943614 1.98715e-20)
(-2.39911 -0.102356 0)
(-2.34382 -0.110177 -1.75458e-20)
(-2.28417 -0.117802 0)
(-2.22019 -0.125211 1.49896e-20)
(-2.15193 -0.13238 -7.31732e-21)
(-2.07948 -0.139282 0)
(-2.00291 -0.145892 -1.07954e-20)
(-1.92234 -0.152182 -4.0894e-21)
(-1.83788 -0.158125 -3.31454e-21)
(-1.74969 -0.163692 0)
(-1.65793 -0.168858 -3.01534e-21)
(-1.56279 -0.173596 -9.37902e-22)
(-1.46446 -0.177883 0)
(-1.36317 -0.181696 -6.54526e-22)
(-1.25916 -0.185017 1.43792e-21)
(-1.15271 -0.18783 0)
(-1.04407 -0.190123 2.9786e-21)
(-0.93354 -0.191887 0)
(-0.82143 -0.193118 -1.17349e-20)
(-0.708054 -0.193814 0)
(-0.593735 -0.193976 1.57316e-20)
(-0.478808 -0.193602 6.40963e-21)
(-0.363606 -0.192682 -5.32986e-21)
(-0.248435 -0.191181 -1.17215e-20)
(-0.133535 -0.188995 1.27071e-20)
(-0.0192162 -0.185961 0)
(0.0940961 -0.182029 0)
(0.205987 -0.177428 0)
(0.316187 -0.172402 -4.5581e-20)
(0.424478 -0.167062 -1.56464e-20)
(0.530612 -0.161464 1.50304e-20)
(0.634341 -0.155645 0)
(0.735441 -0.149641 1.12512e-20)
(0.833706 -0.143486 -1.27134e-20)
(0.928955 -0.137212 -1.18249e-20)
(1.02103 -0.130854 0)
(1.10978 -0.124441 0)
(1.1951 -0.118002 0)
(1.27688 -0.111557 -7.97793e-21)
(1.35503 -0.105124 0)
(1.42948 -0.0987121 1.07266e-20)
(1.50014 -0.0923226 1.3934e-20)
(1.56695 -0.0859492 -7.09552e-21)
(1.62982 -0.0795767 0)
(1.68865 -0.0731813 -1.3733e-21)
(1.74332 -0.0667295 0)
(1.7937 -0.0601773 -5.16533e-22)
(1.83961 -0.0534701 -7.9693e-22)
(1.88083 -0.0465266 -1.42286e-21)
(1.91708 -0.039214 0)
(1.94814 -0.0314169 -6.49038e-21)
(1.97359 -0.0227131 5.40208e-21)
(1.99331 -0.0119204 2.85798e-21)
(2.01126 0.00126659 0)
(2.0264 0.0167868 3.27788e-21)
(2.03681 0.0345138 1.03672e-20)
(2.04027 0.0543662 0)
(2.03215 0.0752226 6.38359e-21)
(2.00637 0.0965005 5.61595e-21)
(1.96108 0.116391 4.26704e-21)
(1.88074 0.128842 0)
(1.77508 0.137704 0)
(1.63985 0.143331 0)
(1.48319 0.141079 6.22592e-22)
(1.32075 0.132543 9.96548e-22)
(1.16339 0.122699 0)
(1.01765 0.111788 4.47332e-21)
(0.887804 0.0991621 5.33065e-21)
(0.775547 0.0851961 0)
(0.681375 0.0705464 6.67205e-21)
(0.60494 0.0562347 1.45965e-20)
(0.544609 0.0436808 -7.68987e-21)
(0.497353 0.0341015 -8.1639e-21)
(0.459384 0.0277837 0)
(0.427234 0.0240184 0)
(0.39857 0.0216658 0)
(0.372348 0.0197606 -8.00716e-21)
(0.348427 0.0177835 8.00212e-21)
(0.327049 0.0156015 1.5465e-20)
(0.308468 0.013286 -7.48611e-21)
(0.292788 0.0109653 7.41284e-21)
(0.279951 0.00875099 7.16989e-21)
(0.269778 0.00671726 0)
(0.262018 0.00490435 0)
(0.256394 0.00332805 -6.86433e-21)
(0.252622 0.00198847 0)
(0.250435 0.000877284 0)
(0.249579 -1.97479e-05 1.33261e-20)
(0.249832 -0.000747267 0)
(0.250952 -0.00131642 6.58081e-21)
(0.252736 -0.00173833 -6.57217e-21)
(0.255017 -0.00203115 0)
(0.257651 -0.00221467 6.51163e-21)
(0.260513 -0.00230812 0)
(0.263501 -0.00232931 0)
(0.266529 -0.00229429 -6.48448e-21)
(0.26953 -0.00221715 1.29095e-20)
(0.272451 -0.0021098 -6.44557e-21)
(0.275254 -0.00198194 0)
(0.27791 -0.00184108 0)
(0.280401 -0.0016928 6.35479e-21)
(0.282714 -0.00154104 0)
(0.284842 -0.00138857 6.29912e-21)
(0.286782 -0.00123729 0)
(0.288533 -0.00108847 0)
(0.290095 -0.000942698 0)
(0.291469 -0.000799628 6.18204e-21)
(0.292656 -0.000657733 0)
(0.293653 -0.000512592 -6.11256e-21)
(0.294459 -0.000364642 0)
(0.295072 -0.000211526 0)
(0.295468 -3.83713e-05 1.20149e-20)
(0.295605 0.000169667 -1.19519e-20)
(0.295435 0.000436217 0)
(0.294854 0.000799748 0)
(0.293791 0.00134568 0)
(0.29171 0.00221703 3.53169e-20)
(0.2895 0.00401987 0)
(0.281782 0.00791576 -2.35355e-20)
(0.0326818 -0.346047 4.95011e-23)
(0.0791019 -0.359703 1.58534e-20)
(0.108648 -0.303833 0)
(0.129966 -0.242652 -1.18504e-20)
(0.142175 -0.183053 0)
(0.144954 -0.126024 0)
(0.138748 -0.0719262 -4.51175e-23)
(0.124 -0.0210804 5.50858e-21)
(0.100911 0.0263637 5.52036e-21)
(0.0695438 0.0706559 5.6679e-21)
(0.0302633 0.111367 0)
(-0.0175051 0.147915 0)
(-0.0750542 0.180801 -5.42657e-21)
(-0.143751 0.211541 -1.0449e-20)
(-0.224719 0.242273 1.00322e-20)
(-0.318956 0.275297 0)
(-0.426819 0.312403 9.29411e-21)
(-0.548595 0.354956 -4.65152e-21)
(-0.682836 0.402541 0)
(-0.826981 0.45324 8.8014e-21)
(-0.977219 0.503367 4.36525e-21)
(-1.12845 0.548775 -9.0387e-21)
(-1.27698 0.586124 -4.38995e-21)
(-1.41877 0.612681 0)
(-1.55119 0.627525 1.03359e-20)
(-1.67201 0.63045 1.09783e-20)
(-1.78055 0.622028 0)
(-1.87705 0.603691 1.24644e-20)
(-1.96241 0.577333 0)
(-2.03794 0.54502 1.40875e-20)
(-2.10508 0.508752 6.75907e-21)
(-2.16526 0.470312 0)
(-2.21973 0.431175 0)
(-2.26953 0.392475 0)
(-2.31543 0.355024 0)
(-2.35799 0.319343 0)
(-2.39756 0.285719 0)
(-2.43436 0.254261 1.97027e-20)
(-2.46849 0.224945 -3.00044e-20)
(-2.49995 0.197666 0)
(-2.52872 0.172265 0)
(-2.55473 0.148565 0)
(-2.57793 0.126381 -3.75393e-22)
(-2.59823 0.10554 2.13991e-20)
(-2.61556 0.0858834 4.34382e-20)
(-2.62983 0.067272 -4.35985e-20)
(-2.64095 0.0495825 -2.19869e-20)
(-2.64883 0.0326996 2.16016e-20)
(-2.65331 0.0164992 3.59501e-22)
(-2.65418 0.000813922 2.16661e-20)
(-2.65126 -0.0145563 0)
(-2.64437 -0.0297341 2.10551e-20)
(-2.63345 -0.0446973 4.42974e-22)
(-2.61844 -0.0594359 0)
(-2.59928 -0.073954 0)
(-2.57592 -0.0882609 -1.91372e-20)
(-2.54831 -0.102362 0)
(-2.51641 -0.116256 0)
(-2.48021 -0.129936 1.7705e-20)
(-2.43969 -0.143386 3.26784e-20)
(-2.39483 -0.156587 -1.48717e-20)
(-2.34564 -0.169512 0)
(-2.29213 -0.182132 1.3041e-20)
(-2.23432 -0.194413 0)
(-2.17224 -0.206316 1.25694e-20)
(-2.10595 -0.217802 1.00208e-20)
(-2.03552 -0.228828 -1.95305e-20)
(-1.96103 -0.239348 -9.54035e-21)
(-1.88258 -0.249317 0)
(-1.80029 -0.258689 1.30732e-20)
(-1.7143 -0.267418 0)
(-1.62478 -0.275459 1.20743e-20)
(-1.5319 -0.282769 6.4714e-21)
(-1.43586 -0.289308 4.28671e-21)
(-1.33689 -0.295039 -2.12789e-21)
(-1.23522 -0.29993 -1.00447e-21)
(-1.1311 -0.303953 0)
(-1.02482 -0.307086 0)
(-0.916659 -0.309312 6.02909e-21)
(-0.806918 -0.310624 1.29153e-20)
(-0.695911 -0.311015 0)
(-0.583962 -0.310488 -6.7668e-21)
(-0.4714 -0.309049 0)
(-0.358553 -0.306708 2.26426e-20)
(-0.24573 -0.303475 2.23248e-21)
(-0.133207 -0.299369 -2.24193e-21)
(-0.0212748 -0.294457 -1.77832e-20)
(0.0897317 -0.288812 0)
(0.199467 -0.282464 1.82515e-20)
(0.30764 -0.275465 1.9872e-21)
(0.413997 -0.267883 0)
(0.518276 -0.259779 0)
(0.620228 -0.251216 0)
(0.719625 -0.242259 -1.76923e-20)
(0.816262 -0.232971 0)
(0.909958 -0.223414 0)
(1.00055 -0.213649 0)
(1.08791 -0.203732 0)
(1.17191 -0.193711 0)
(1.25245 -0.183627 -9.72816e-21)
(1.32944 -0.173512 0)
(1.40281 -0.163383 -8.21426e-21)
(1.47249 -0.153249 -6.86224e-21)
(1.53838 -0.143101 5.51541e-21)
(1.60043 -0.13292 0)
(1.65852 -0.12267 2.88409e-21)
(1.71255 -0.112303 0)
(1.76239 -0.101754 4.12445e-22)
(1.80787 -0.0909432 7.34539e-22)
(1.84879 -0.0797661 6.50767e-21)
(1.88494 -0.0680879 0)
(1.91608 -0.0557447 1.19352e-20)
(1.9419 -0.0426058 5.28769e-21)
(1.96206 -0.0285372 0)
(1.977 -0.0127908 1.18908e-20)
(1.98716 0.00544397 1.24534e-20)
(1.99248 0.0266549 -1.85846e-20)
(1.99297 0.0514346 0)
(1.98759 0.0797173 -5.45259e-21)
(1.97397 0.112018 -4.81528e-21)
(1.9529 0.151531 -1.24189e-20)
(1.9212 0.192032 0)
(1.86824 0.224125 0)
(1.78391 0.246973 0)
(1.66832 0.258491 -1.80819e-22)
(1.52888 0.256528 0)
(1.37522 0.243029 0)
(1.21906 0.221675 -3.92056e-21)
(1.07093 0.19539 -4.67907e-21)
(0.937206 0.166414 0)
(0.821091 0.136777 0)
(0.723733 0.108721 -1.2889e-20)
(0.644484 0.0846325 0)
(0.581141 0.0662724 1.44085e-20)
(0.530448 0.053911 1.49925e-20)
(0.488909 0.0462587 0)
(0.453636 0.0413125 0)
(0.422815 0.0373531 -1.45517e-20)
(0.395606 0.0334113 1.26114e-22)
(0.371757 0.0291957 1.03598e-22)
(0.351232 0.0247995 0)
(0.333981 0.0204396 -2.59278e-20)
(0.319869 0.0163127 0)
(0.308665 0.0125486 0)
(0.300085 0.0092127 0)
(0.293819 0.00632406 1.19742e-20)
(0.289558 0.00387292 0)
(0.287004 0.00183204 -2.34342e-20)
(0.285881 0.000162683 -1.16295e-20)
(0.285933 -0.00116725 0)
(0.286924 -0.00219742 -1.14927e-20)
(0.288645 -0.00296462 0)
(0.290918 -0.00350482 0)
(0.293589 -0.00385307 -3.40951e-20)
(0.296525 -0.00404248 2.26635e-20)
(0.299615 -0.00410355 0)
(0.302768 -0.00406381 2.2562e-20)
(0.30591 -0.00394751 -1.12716e-20)
(0.308981 -0.00377541 0)
(0.31194 -0.00356467 0)
(0.314753 -0.00332894 0)
(0.317399 -0.0030786 -3.33687e-20)
(0.319863 -0.00282124 0)
(0.322137 -0.00256221 -1.10423e-20)
(0.324218 -0.00230519 0)
(0.326105 -0.00205251 0)
(0.327799 -0.00180534 0)
(0.329299 -0.00156355 0)
(0.330609 -0.00132539 0)
(0.331724 -0.00108685 0)
(0.332646 -0.000841512 -2.13146e-20)
(0.333369 -0.000577734 0)
(0.333874 -0.000287514 -1.05509e-20)
(0.334128 5.03741e-05 3.14846e-20)
(0.334092 0.00046951 0)
(0.333682 0.00102306 0)
(0.332849 0.0018183 -2.07337e-20)
(0.331227 0.00303178 -2.06947e-20)
(0.329576 0.0052399 2.06837e-20)
(0.324706 0.00951941 2.06867e-20)
(0.00992821 -0.429884 -2.82445e-20)
(0.0318102 -0.397276 -2.1378e-20)
(0.0322488 -0.322282 -1.17918e-20)
(0.0279003 -0.246081 -5.18848e-21)
(0.0178492 -0.171649 0)
(0.0012461 -0.0996473 9.84275e-21)
(-0.0223545 -0.0304288 -4.70882e-21)
(-0.053371 0.0357851 0)
(-0.0922502 0.0989297 -4.81854e-21)
(-0.139576 0.159158 0)
(-0.195962 0.216686 8.83872e-21)
(-0.262214 0.271939 0)
(-0.339217 0.325794 4.27086e-21)
(-0.427726 0.379485 8.18796e-21)
(-0.52808 0.434331 -7.84511e-21)
(-0.639906 0.491269 0)
(-0.761925 0.550326 -7.28617e-21)
(-0.891639 0.610293 0)
(-1.02546 0.668601 0)
(-1.15911 0.721617 -7.01031e-21)
(-1.28819 0.765431 0)
(-1.40917 0.796997 -9.81896e-22)
(-1.51955 0.814654 0)
(-1.61826 0.818334 0)
(-1.70531 0.809094 1.35567e-21)
(-1.7815 0.78863 -9.10031e-21)
(-1.84831 0.759051 -1.11236e-20)
(-1.90751 0.722617 -1.03726e-20)
(-1.96085 0.681492 0)
(-2.00987 0.637587 -2.46936e-20)
(-2.05583 0.592475 0)
(-2.09964 0.547377 -1.41252e-20)
(-2.14186 0.503179 0)
(-2.18283 0.460478 0)
(-2.22264 0.419634 1.5676e-20)
(-2.26125 0.380828 0)
(-2.29851 0.344107 -1.6568e-20)
(-2.33423 0.309424 6.22097e-22)
(-2.36816 0.276672 3.40839e-20)
(-2.40009 0.245706 -3.53084e-20)
(-2.42979 0.216365 0)
(-2.45706 0.188479 0)
(-2.48169 0.161883 -1.88418e-20)
(-2.50352 0.136421 0)
(-2.52238 0.111946 -1.8253e-20)
(-2.53813 0.0883279 1.83326e-20)
(-2.55061 0.0654488 1.83624e-20)
(-2.55969 0.043205 0)
(-2.56523 0.0215012 -1.82703e-20)
(-2.56709 0.000237221 -1.81173e-20)
(-2.56518 -0.0206854 3.66194e-20)
(-2.55942 -0.0413348 -1.75975e-20)
(-2.54976 -0.0617369 -1.72628e-20)
(-2.53614 -0.0819006 0)
(-2.51849 -0.10183 0)
(-2.49675 -0.121524 1.59634e-20)
(-2.47089 -0.140977 0)
(-2.44084 -0.160178 0)
(-2.40659 -0.179107 -2.84931e-20)
(-2.3681 -0.19774 -2.71791e-20)
(-2.32535 -0.216044 0)
(-2.27834 -0.23398 0)
(-2.22707 -0.251506 0)
(-2.17156 -0.268573 0)