/*--------------------------------*- C++ -*----------------------------------*\
  =========                 |
  \\      /  F ield         | OpenFOAM: The Open Source CFD Toolbox
   \\    /   O peration     | Website:  https://openfoam.org
    \\  /    A nd           | Version:  9
     \\/     M anipulation  |
\*---------------------------------------------------------------------------*/
FoamFile
{
    format      ascii;
    class       volScalarField;
    location    "0.07";
    object      epsilon;
}
// * * * * * * * * * * * * * * * * * * * * * * * * * * * * * * * * * * * * * //

dimensions      [0 2 -3 0 0 0 0];

internalField   nonuniform List<scalar> 
12225
(
209.747
126.312
81.7647
58.3399
45.657
38.2232
33.3182
29.6756
26.7313
24.2297
22.0432
20.1017
18.3707
16.856
15.6487
15.2404
18.9573
64.3482
61.912
55.0419
42.1849
33.2772
27.5236
23.662
20.9269
18.864
17.2109
15.8182
14.5961
13.4846
12.4414
11.4405
10.4892
9.85737
11.858
34.6045
31.6181
33.268
28.826
24.3299
20.8041
18.1625
16.1749
14.6404
13.4167
12.4104
11.5591
10.8178
10.1518
9.53658
8.98662
8.82015
11.2669
28.3731
21.9114
23.8992
22.1916
19.6829
17.3483
15.4068
13.8463
12.5954
11.583
10.7535
10.066
9.49002
9.00254
8.59251
8.30036
8.48691
11.1594
24.7959
17.856
19.1141
18.3219
16.7865
15.1602
13.6861
12.4276
11.3776
10.5076
9.78826
9.19544
8.71055
8.32183
8.0321
7.90462
8.30714
10.922
21.705
15.9017
16.4273
15.8927
14.835
13.6345
12.4791
11.4446
10.55
9.79018
9.15294
8.62597
8.20009
7.87244
7.65681
7.63009
8.13618
10.5097
18.8719
14.8887
14.8395
14.3115
13.4748
12.5243
11.5828
10.713
9.93989
9.26893
8.69766
8.22168
7.83845
7.55148
7.38172
7.41031
7.93843
9.98115
16.3376
14.3452
13.8782
13.2668
12.5152
11.704
10.9011
10.149
9.46892
8.86917
8.35185
7.91713
7.56665
7.30793
7.16543
7.21723
7.71386
9.40168
14.1457
14.0499
13.2928
12.576
11.8395
11.0982
10.3804
9.70893
9.09763
8.55346
8.07966
7.67843
7.35361
7.11467
6.98666
7.03976
7.47383
8.82253
12.3062
13.8893
12.9386
12.1237
11.3691
10.6557
9.98591
9.36673
8.80407
8.30166
7.8619
7.48733
7.18242
6.95702
6.83464
6.87502
7.23207
8.27855
10.8001
13.8024
12.7276
11.8331
11.048
10.3388
9.69243
9.10464
8.57449
8.102
7.68783
7.33374
7.04383
6.82716
6.70433
6.72397
7.00097
7.79062
9.59177
13.7596
12.6144
11.666
10.8524
10.1363
9.49745
8.92509
8.41348
7.95958
7.56219
7.2219
6.94185
6.72974
6.60284
6.60003
6.80739
7.40366
8.71758
13.7351
12.5453
11.5576
10.7188
9.99199
9.35357
8.78877
8.28846
7.84709
7.46166
7.13143
6.85833
6.64833
6.51513
6.48839
6.63016
7.06116
7.99048
13.7204
12.5012
11.4843
10.6236
9.88443
9.2423
8.68019
8.1866
7.75391
7.37742
7.05495
6.78693
6.57727
6.43578
6.38333
6.46142
6.74617
7.36213
13.7125
12.4765
11.4407
10.5638
9.81372
9.16629
8.60377
8.11331
7.68587
7.31535
6.9982
6.73326
6.52225
6.37115
6.29306
6.31324
6.47585
6.84966
13.7088
12.4644
11.4186
10.5322
9.77479
9.12317
8.55951
8.07045
7.64611
7.27941
6.9656
6.70209
6.48854
6.32749
6.2258
6.19689
6.26366
6.46059
13.7071
12.4594
11.4096
10.5194
9.75915
9.10615
8.54273
8.05536
7.63368
7.26994
6.9585
6.69556
6.47906
6.30884
6.18717
6.11965
6.11616
6.19167
13.7063
12.4577
11.4074
10.5173
9.75803
9.10684
8.54606
8.06193
7.64376
7.28329
6.97418
6.71172
6.49258
6.3147
6.17742
6.08166
6.03017
6.02781
13.7058
12.4576
11.409
10.5218
9.76639
9.11976
8.56385
8.08456
7.6708
7.31388
7.00698
6.74475
6.52304
6.33869
6.1894
6.07373
5.99105
5.94171
13.7064
12.461
11.4174
10.5365
9.78765
9.14715
8.5964
8.121
7.7097
7.35373
7.04615
6.78148
6.55535
6.36423
6.20534
6.07645
5.97594
5.9029
13.7102
12.4745
11.4432
10.5744
9.83559
9.20201
8.65498
8.1804
7.7675
7.40798
7.0953
6.82423
6.5905
6.3906
6.2216
6.08106
5.96705
5.87835
13.7243
12.5178
11.517
10.6727
9.94913
9.32187
8.77389
8.29311
7.87058
7.49941
7.17403
6.88982
6.64285
6.42971
6.24744
6.09349
5.9658
5.86309
13.768
12.6381
11.7027
10.8984
10.1905
9.56014
8.99703
8.49449
8.04737
7.65117
7.30171
6.99502
6.72738
6.49534
6.29571
6.12567
5.9829
5.86605
13.8905
12.9362
12.1165
11.3599
10.6486
9.98511
9.3755
8.82277
8.32722
7.88697
7.49876
7.15862
6.86235
6.60584
6.38518
6.19689
6.03807
5.90712
14.2126
13.611
12.9521
12.2111
11.4375
10.679
9.96676
9.31987
8.74325
8.23564
7.79263
7.4084
7.07682
6.79199
6.5485
6.34157
6.16734
6.02359
15.0251
15.0536
14.5369
13.6855
12.7119
11.7445
10.8477
10.0464
9.34904
8.74917
8.23655
7.80018
7.42967
7.11578
6.85053
6.62723
6.44054
6.28731
17.0685
18.0895
17.4737
16.1769
14.7301
13.3627
12.158
11.1306
10.2675
9.55113
8.95728
8.46473
8.05574
7.71585
7.43345
7.19924
7.00604
6.8493
22.5955
24.7582
23.0681
20.5077
18.058
15.9736
14.2796
12.9256
11.8448
10.9849
10.2991
9.749
9.30539
8.94641
8.65557
8.42035
8.23136
8.08223
40.9562
41.3326
35.0295
29.1255
24.545
21.1197
18.5874
16.7086
15.2971
14.2271
13.4171
12.7973
12.319
11.9487
11.6628
11.4443
11.281
11.1642
135.941
97.0516
71.6317
54.9722
44.0214
36.7769
31.913
28.5634
26.1894
24.4953
23.2766
22.3784
21.7088
21.2106
20.8458
20.5876
20.4167
20.3175
22.8504
7.41836
8.39768
8.54582
8.7113
8.7934
8.79815
8.78568
37.6269
8.87154
8.72832
8.74674
8.62279
38.5171
39.5807
38.2914
39.4164
41.8972
44.6384
46.8857
48.3207
49.7376
53.1619
58.7425
66.4118
75.8536
86.6266
98.2891
110.459
122.832
135.176
147.32
159.145
170.575
181.559
192.073
202.108
211.667
220.762
229.412
237.64
245.47
252.932
260.06
266.891
273.471
279.854
286.108
292.321
298.467
304.294
309.82
315.057
320.004
324.65
328.983
332.983
336.63
339.904
342.78
345.235
347.243
348.78
349.822
350.344
350.325
349.745
348.584
346.829
344.467
341.491
337.897
333.685
328.863
323.44
317.431
310.858
303.746
296.126
288.034
279.515
270.632
261.5
252.462
244.828
240.333
236.498
232.639
228.606
224.362
219.913
215.273
210.466
205.517
200.451
195.292
190.064
184.785
179.472
174.14
168.796
163.445
158.089
152.722
147.333
141.902
136.395
130.749
124.821
118.619
112.256
105.512
98.2396
90.3535
81.8481
72.8538
63.7101
55.1582
52.8628
12.137
52.5418
52.86
12.1573
11.2147
9.7839
8.10809
6.46452
5.06579
4.01065
3.29159
2.84041
2.57575
2.43011
2.35668
2.32589
2.31981
2.3277
2.34303
2.36188
2.38183
2.40148
2.42005
2.43716
2.45272
2.46688
2.47999
2.49152
2.50081
2.5079
2.51302
2.5164
2.51829
2.51897
2.51867
2.51765
2.51611
2.51422
2.5121
2.50981
2.5074
2.50486
2.50221
2.49949
2.49672
2.49398
2.49133
2.4888
2.48642
2.48415
2.4819
2.47975
2.47775
2.47566
2.4733
2.47055
2.46739
2.46379
2.45972
2.45378
2.44266
35.5585
25.9623
22.9953
21.8209
20.827
20.0398
19.5112
19.3346
20.0365
19.8834
21.453
23.8922
27.4932
33.2872
40.0021
48.0172
57.5427
67.0935
76.3473
84.7226
91.6941
97.0246
100.801
103.236
104.644
105.325
105.522
105.423
105.17
104.868
104.59
104.383
104.276
104.28
104.399
104.63
104.965
105.397
105.916
106.515
107.188
107.932
108.746
109.634
110.606
111.676
112.866
114.205
115.728
117.493
119.267
121.023
122.753
124.45
126.107
127.716
129.268
130.755
132.165
133.488
134.713
135.828
136.822
137.682
138.397
138.953
139.34
139.546
139.561
139.375
138.98
138.369
137.536
136.478
135.193
133.68
131.942
129.982
127.806
125.424
122.85
120.106
117.231
114.294
111.423
108.912
106.573
104.234
101.844
99.389
96.8723
94.3019
91.6889
89.0451
86.3825
83.7126
81.0458
78.3918
75.7589
73.154
70.5828
68.0498
65.558
63.1092
60.704
58.3417
56.0196
53.7324
51.4806
49.3463
47.5885
46.0049
44.53
43.124
41.7613
40.4176
39.0576
37.7485
36.1626
32.918
32.1919
29.7657
23.6644
19.0935
15.1157
11.6159
8.67991
6.36956
4.66739
3.48751
2.71159
2.22264
1.9244
1.74674
1.64276
1.58291
1.5493
1.5313
1.52262
1.51952
1.51975
1.52193
1.52524
1.52917
1.5334
1.53782
1.54209
1.54573
1.54865
1.55084
1.55236
1.55329
1.55372
1.55374
1.55342
1.55286
1.55211
1.55121
1.55021
1.54911
1.54792
1.54665
1.54531
1.54394
1.54256
1.54122
1.53993
1.53871
1.53756
1.53646
1.53554
1.5348
1.53419
1.53373
1.53345
1.53354
1.53436
1.53703
1.5433
1.56531
52.5218
35.8344
30.3211
27.483
25.7922
24.8543
24.5843
25.0573
26.5159
28.9037
32.6051
38.0007
45.195
53.9563
63.7903
73.9048
83.3926
91.2588
96.854
99.9138
100.613
99.4783
97.1755
94.3068
91.3183
88.4882
85.9623
83.8005
82.0119
80.5762
79.4578
78.614
78.0015
77.5801
77.3156
77.1813
77.1576
77.2315
77.3954
77.6455
77.981
78.403
78.9134
79.5148
80.2101
81.0021
81.8929
82.8836
83.9726
85.1333
86.3309
87.5538
88.7952
90.0493
91.3097
92.5697
93.8217
95.0576
96.2687
97.4456
98.5782
99.6561
100.668
101.603
102.449
103.195
103.829
104.34
104.717
104.95
105.029
104.947
104.696
104.27
103.666
102.88
101.912
100.764
99.4364
97.9361
96.2708
94.452
92.4963
90.4239
88.252
86.0969
83.9878
81.864
79.7031
77.5009
75.262
72.9951
70.7105
68.4191
66.1316
63.8582
61.608
59.3895
57.2097
55.0747
52.9894
50.9575
48.9821
47.0651
45.2079
43.4113
41.6757
40.0012
38.3912
36.8649
35.4766
34.2374
33.1203
32.1056
31.1753
30.3178
29.5423
28.9098
28.3782
27.8739
27.5241
26.6337
24.5424
21.5868
18.0565
14.3794
10.9684
8.09539
5.86536
4.25157
3.1513
2.43688
1.99006
1.71796
1.55514
1.45885
1.40251
1.37009
1.35205
1.34273
1.33871
1.33791
1.33903
1.34126
1.34408
1.34716
1.35021
1.35291
1.35515
1.35688
1.35813
1.35892
1.35932
1.35937
1.35914
1.35868
1.35804
1.35726
1.35637
1.35539
1.35434
1.35323
1.35207
1.35089
1.34971
1.34856
1.34746
1.34643
1.34549
1.34464
1.34393
1.34342
1.3431
1.34303
1.34329
1.34408
1.34575
1.34928
1.35627
1.37284
69.8273
45.0654
37.72
34.4237
32.8155
32.3238
32.9138
34.7759
37.7516
42.0001
47.6855
54.8178
63.118
71.9695
80.4993
87.7545
92.9377
95.5938
95.7466
93.8456
90.5895
86.7055
82.777
79.1751
76.0779
73.5279
71.4915
69.9013
68.6819
67.7613
67.0764
66.5748
66.2149
65.9658
65.806
65.722
65.7068
65.7582
65.8767
66.0646
66.325
66.6608
67.0745
67.5677
68.1411
68.7944
69.5259
70.3328
71.2119
72.1471
73.1281
74.1487
75.2038
76.2881
77.396
78.5211
79.6566
80.7947
81.9272
83.0449
84.1383
85.197
86.2101
87.1665
88.0546
88.8625
89.5786
90.1913
90.6894
91.0623
91.3001
91.3941
91.3365
91.1211
90.7429
90.1986
89.4866
88.6068
87.5608
86.3522
84.9861
83.4692
81.8089
80.011
78.0752
76.0794
74.0781
72.0487
69.984
67.8861
65.7619
63.621
61.4742
59.3324
57.2062
55.1056
53.0397
51.0164
49.0426
47.124
45.265
43.4691
41.7389
40.0762
38.4822
36.9578
35.5034
34.1195
32.8074
31.5728
30.4294
29.3925
28.4511
27.5969
26.8189
26.1076
25.4631
24.9108
24.4781
24.2109
24.1064
23.9101
23.1824
21.6253
19.1878
16.1213
12.8514
9.78833
7.20603
5.21372
3.78794
2.82885
2.21383
1.83257
1.60136
1.46304
1.38113
1.3332
1.30576
1.29073
1.28325
1.28037
1.28024
1.28171
1.28402
1.28671
1.28945
1.29195
1.29408
1.29577
1.29702
1.29784
1.29828
1.29838
1.29818
1.29774
1.2971
1.29631
1.2954
1.2944
1.29333
1.2922
1.29104
1.28987
1.2887
1.28756
1.28648
1.28548
1.28457
1.28378
1.28314
1.28271
1.28251
1.28262
1.28312
1.28421
1.28622
1.28991
1.2964
1.30842
88.0341
55.7745
47.1207
43.7113
42.4685
42.6767
44.2571
46.8828
50.6135
55.4995
61.4277
68.0672
74.8537
81.0525
85.9062
88.8287
89.5694
88.2781
85.4421
81.7151
77.7252
73.9427
70.6378
67.91
65.7462
64.0763
62.8113
61.8645
61.1605
60.6373
60.247
59.9537
59.7323
59.5671
59.4494
59.3764
59.3488
59.3699
59.4438
59.5753
59.7684
60.0267
60.3527
60.748
61.2131
61.7476
62.3501
63.0184
63.7494
64.5352
65.3709
66.252
67.1744
68.1335
69.1241
70.1404
71.1759
72.2235
73.2752
74.3224
75.3556
76.3649
77.3396
78.2687
79.1407
79.9438
80.6663
81.2964
81.823
82.235
82.5227
82.6768
82.6896
82.5545
82.2663
81.8216
81.2184
80.4562
79.5362
78.4611
77.2343
75.8604
74.3433
72.6851
70.8827
69.0063
67.102
65.1619
63.1866
61.1818
59.1562
57.1204
55.0854
53.0626
51.0628
49.0961
47.1717
45.2975
43.4804
41.7258
40.0379
38.4201
36.8744
35.4024
34.005
32.6826
31.4354
30.2635
29.1667
28.1462
27.2054
26.3498
25.5725
24.8675
24.2257
23.6376
23.0984
22.6165
22.2173
21.9469
21.8326
21.7849
21.5449
20.7761
19.2314
16.9132
14.0835
11.1318
8.41835
6.17437
4.4786
3.28981
2.50419
2.00661
1.70007
1.51438
1.40314
1.3372
1.29875
1.27702
1.26548
1.26017
1.2586
1.25924
1.26109
1.26351
1.26609
1.26853
1.27065
1.27239
1.2737
1.27459
1.27509
1.27524
1.27507
1.27464
1.274
1.27318
1.27223
1.27118
1.27006
1.26889
1.2677
1.26649
1.2653
1.26414
1.26304
1.26202
1.2611
1.26032
1.2597
1.2593
1.25916
1.25934
1.25996
1.26118
1.26329
1.26685
1.27256
1.28155
106.954
68.352
58.5261
55.0567
54.1307
54.8192
56.422
58.906
62.2656
66.3666
70.9069
75.4226
79.3502
82.1394
83.3915
82.974
81.0584
78.0596
74.5033
70.8796
67.5448
64.6929
62.3812
60.5786
59.2106
58.1905
57.4365
56.8789
56.4619
56.143
55.8913
55.6861
55.5147
55.3709
55.2533
55.1638
55.1066
55.0865
55.1091
55.1794
55.3019
55.4804
55.7176
56.0154
56.375
56.7964
57.2793
57.8225
58.4232
59.0774
59.7819
60.5335
61.3287
62.1637
63.0337
63.9337
64.8578
65.7992
66.7506
67.704
68.6504
69.5802
70.4834
71.3492
72.1663
72.9233
73.6086
74.2106
74.7181
75.1203
75.4072
75.5698
75.6002
75.4917
75.2393
74.8394
74.2898
73.5902
72.7413
71.7452
70.6046
69.323
67.9031
66.3462
64.6495
62.885
61.0819
59.239
57.3609
55.4555
53.5327
51.6036
49.6798
47.7729
45.8942
44.054
42.2618
40.5257
38.8526
37.2479
35.7158
34.2592
32.88
31.5792
30.3573
29.2142
28.1496
27.1627
26.2526
25.4183
24.6592
23.9749
23.3587
22.8039
22.3013
21.8404
21.4132
21.0198
20.6754
20.4132
20.2663
20.2142
20.1214
19.7323
18.7643
17.0704
14.7389
12.0575
9.38606
7.02532
5.14202
3.76344
2.82142
2.20959
1.82544
1.58916
1.44566
1.35937
1.30814
1.2784
1.26186
1.25342
1.24993
1.24939
1.25053
1.25253
1.25486
1.25717
1.25925
1.26099
1.26233
1.26326
1.26379
1.26397
1.26382
1.26339
1.26273
1.26188
1.2609
1.2598
1.25864
1.25742
1.25618
1.25494
1.25372
1.25253
1.25141
1.25036
1.24943
1.24863
1.24802
1.24762
1.24749
1.24771
1.24836
1.24959
1.25165
1.25493
1.25982
1.26674
125.32
81.5186
70.7557
67.2401
66.3674
66.537
67.4716
69.0488
71.1331
73.4997
75.8175
77.689
78.7329
78.6834
77.4684
75.2321
72.2897
69.0309
65.8169
62.9085
60.445
58.4616
56.9246
55.7663
54.9088
54.2789
53.814
53.4638
53.1903
52.966
52.7721
52.5975
52.4364
52.2877
52.1531
52.0366
51.9431
51.8781
51.8471
51.8552
51.907
52.0061
52.1558
52.3582
52.615
52.927
53.2945
53.7169
54.1934
54.7202
55.2953
55.9166
56.5813
57.2861
58.0271
58.7998
59.599
60.4188
61.2526
62.0929
62.9316
63.7598
64.568
65.3461
66.0832
66.7685
67.3907
67.9386
68.4011
68.7677
69.0286
69.1747
69.1982
69.0927
68.853
68.4756
67.9584
67.3008
66.5033
65.5677
64.4963
63.2918
61.9564
60.4915
58.8965
57.2452
55.549
53.8106
52.0366
50.2363
48.4203
46.6001
44.7877
42.9953
41.2345
39.5162
37.8503
36.2453
34.7084
33.245
31.8594
30.5541
29.3308
28.19
27.1318
26.1553
25.2596
24.4432
23.7042
23.0402
22.4485
21.9258
21.4645
21.0568
20.6924
20.3595
20.0478
19.7524
19.4797
19.2516
19.0969
19.0215
18.9595
18.7376
18.1073
16.8637
14.9729
12.6094
10.0833
7.71451
5.72774
4.21134
3.13917
2.4236
1.96456
1.6772
1.4999
1.39157
1.32605
1.28706
1.26451
1.25218
1.24614
1.24395
1.24401
1.24531
1.24719
1.24921
1.25111
1.25274
1.25401
1.25491
1.25542
1.25557
1.2554
1.25494
1.25425
1.25336
1.25233
1.25118
1.24997
1.24871
1.24743
1.24616
1.2449
1.24369
1.24254
1.24147
1.24051
1.2397
1.23907
1.23866
1.23852
1.23872
1.23935
1.24052
1.24242
1.24534
1.24947
1.25487
142.194
94.1061
82.5049
78.5447
76.9161
76.3058
76.238
76.4848
76.8703
77.1931
77.2179
76.7146
75.522
73.6039
71.0675
68.1353
65.081
62.1585
59.5517
57.3569
55.5936
54.2288
53.2017
52.4435
51.8884
51.4795
51.1709
50.9273
50.7227
50.5394
50.3662
50.1972
50.0304
49.867
49.7099
49.5637
49.4334
49.3243
49.2416
49.1902
49.1744
49.1981
49.2645
49.376
49.5347
49.7419
49.9986
50.3049
50.6607
51.0628
51.51
52.0006
52.5325
53.1032
53.7095
54.3477
55.0133
55.7014
56.4061
57.1209
57.8386
58.5511
59.2498
59.9253
60.5677
61.1665
61.7111
62.1909
62.5951
62.9135
63.1365
63.2553
63.2621
63.1506
62.9157
62.5538
62.0628
61.4419
60.6916
59.8131
58.8082
57.6791
56.4274
55.0537
53.5685
52.0324
50.4468
48.8169
47.1503
45.4568
43.7472
42.0337
40.3286
38.6447
36.9943
35.389
33.8394
32.3548
30.9427
29.6089
28.3577
27.1916
26.112
25.1189
24.2117
23.389
22.649
21.9893
21.4073
20.8993
20.4613
20.0883
19.7721
19.5034
19.2705
19.0608
18.8619
18.6656
18.4722
18.2947
18.1556
18.0691
18.0057
17.8518
17.4088
16.4671
14.9249
12.8645
10.5303
8.22754
6.20885
4.60783
3.43802
2.63544
2.10868
1.77252
1.56149
1.43033
1.34948
1.30022
1.27077
1.25377
1.24456
1.24019
1.23876
1.23902
1.24017
1.24168
1.24322
1.24458
1.24567
1.24642
1.24681
1.24687
1.24661
1.24608
1.24531
1.24436
1.24326
1.24205
1.24078
1.23947
1.23814
1.23683
1.23554
1.23429
1.23312
1.23203
1.23105
1.23022
1.22956
1.22912
1.22895
1.2291
1.22965
1.23071
1.23241
1.23493
1.23834
1.2426
156.683
105.003
91.945
87.1243
84.8298
83.413
82.2651
81.1188
79.8286
78.2877
76.4078
74.1367
71.4858
68.545
65.4706
62.4478
59.6469
57.1892
55.1342
53.486
52.2093
51.2477
50.5379
50.0194
49.6391
49.3535
49.1284
48.9386
48.7661
48.5989
48.4304
48.2575
48.08
47.8999
47.7207
47.5468
47.3828
47.2336
47.1042
46.9988
46.9218
46.8766
46.8666
46.8944
46.9622
47.0718
47.2245
47.4211
47.6622
47.9448
48.2681
48.631
49.032
49.4692
49.9401
50.4418
50.9708
51.5229
52.0935
52.6769
53.2671
53.8569
54.4387
55.0042
55.5444
56.0497
56.5102
56.9159
57.2566
57.5224
57.7041
57.793
57.7815
57.6634
57.4335
57.0882
56.6252
56.0435
55.3433
54.5254
53.591
52.5416
51.3777
50.0985
48.7328
47.3123
45.8388
44.318
42.7577
41.1679
39.5596
37.9453
36.3379
34.7509
33.1976
31.6908
30.2421
28.8617
27.5579
26.3372
25.204
24.1608
23.2087
22.3473
21.5754
20.8908
20.2909
19.7724
19.3316
18.964
18.6644
18.4266
18.2423
18.1004
17.9884
17.8922
17.7983
17.6961
17.5817
17.4616
17.3522
17.2688
17.1997
17.0705
16.7276
15.9803
14.698
12.8994
10.7665
8.57303
6.57646
4.93832
3.70448
2.83506
2.25104
1.87076
1.62763
1.4738
1.37718
1.31696
1.27989
1.25756
1.24459
1.23755
1.23419
1.23305
1.23317
1.23391
1.23487
1.23579
1.23653
1.23699
1.23716
1.23702
1.2366
1.23593
1.23504
1.23398
1.23278
1.23149
1.23014
1.22876
1.22737
1.22601
1.22468
1.2234
1.22219
1.22108
1.22008
1.21921
1.21852
1.21804
1.21782
1.2179
1.21834
1.21925
1.22069
1.22281
1.22559
1.22894
166.447
111.947
97.9438
92.6203
89.8137
87.7017
85.6105
83.2785
80.6254
77.6576
74.4284
71.0244
67.5606
64.171
60.99
58.1304
55.6651
53.6218
51.9875
50.7209
49.765
49.0586
48.5432
48.1673
47.8881
47.6714
47.4914
47.329
47.1713
47.01
46.8407
46.6618
46.4741
46.2797
46.0821
45.8851
45.693
45.5103
45.3412
45.1897
45.0597
44.9547
44.8775
44.8311
44.8176
44.8392
44.8973
44.9934
45.1283
45.2996
45.5065
45.7484
46.0242
46.3327
46.672
47.0401
47.4345
47.8518
48.2885
48.7401
49.2016
49.6671
50.1303
50.5838
51.0199
51.4299
51.805
52.1357
52.4127
52.6266
52.7685
52.8299
52.8034
52.6827
52.4625
52.1391
51.7101
51.174
50.5305
49.7798
48.9224
47.9588
46.8889
45.7127
44.4694
43.1647
41.8023
40.388
38.9295
37.4364
35.9199
34.3927
32.8687
31.3623
29.8881
28.4605
27.0925
25.7957
24.5796
23.4514
22.4159
21.4759
20.632
19.8836
19.2286
18.664
18.1863
17.7912
17.4741
17.2295
17.0512
16.9324
16.8642
16.8344
16.8291
16.8337
16.8334
16.816
16.7749
16.7119
16.6381
16.5669
16.4952
16.3727
16.0813
15.4563
14.3616
12.7772
10.8348
8.77117
6.83378
5.19718
3.93048
3.01525
2.38637
1.96843
1.69617
1.52077
1.40849
1.33701
1.29185
1.26366
1.24643
1.23625
1.23055
1.22765
1.22643
1.22614
1.22629
1.22657
1.22679
1.22683
1.22664
1.2262
1.22553
1.22464
1.22356
1.22234
1.221
1.21959
1.21814
1.21667
1.21521
1.21378
1.2124
1.21108
1.20983
1.20868
1.20765
1.20675
1.20601
1.20548
1.20519
1.20518
1.2055
1.20622
1.20741
1.20914
1.21135
1.21396
171.417
115.49
100.906
95.2296
92.048
89.4254
86.65
83.4792
79.8972
76.0063
71.9654
67.9498
64.1234
60.6203
57.5327
54.9072
52.7482
51.0267
49.692
48.6824
47.9345
47.3888
46.9929
46.7028
46.4831
46.3063
46.1518
46.0047
45.8551
45.6967
45.5266
45.3438
45.1493
44.9453
44.7347
44.521
44.3079
44.0994
43.8991
43.7108
43.5377
43.383
43.2496
43.1401
43.0567
43.0016
42.9766
42.9832
43.0228
43.0932
43.1939
43.3243
43.4839
43.6718
43.8871
44.1283
44.3938
44.6815
44.9885
45.3119
45.6476
45.9913
46.3378
46.6812
47.0148
47.3313
47.6229
47.8812
48.0974
48.2629
48.3692
48.408
48.3721
48.2549
48.0513
47.7572
47.3696
46.8867
46.3076
45.6316
44.8583
43.9866
43.0148
41.9576
40.8329
39.6416
38.3871
37.0742
35.7102
34.3039
32.8667
31.4116
29.9533
28.5079
27.0917
25.7209
24.4107
23.1743
22.0228
20.9645
20.0047
19.1465
18.3902
17.7346
17.1768
16.713
16.3385
16.0482
15.8363
15.6963
15.6215
15.6041
15.635
15.7008
15.7866
15.8771
15.9569
16.0126
16.0355
16.0243
15.986
15.9313
15.8602
15.7374
15.4708
14.9213
13.9596
12.5459
10.7742
8.84611
6.99104
5.38533
4.11252
3.17151
2.51077
2.06274
1.76533
1.5702
1.44295
1.36028
1.30679
1.27239
1.2505
1.23678
1.22838
1.22338
1.22053
1.21894
1.21805
1.21748
1.21699
1.21645
1.21577
1.21493
1.2139
1.21272
1.21139
1.20995
1.20843
1.20686
1.20527
1.20369
1.20214
1.20063
1.19918
1.1978
1.19651
1.19532
1.19424
1.1933
1.19251
1.19192
1.19155
1.19144
1.19162
1.19216
1.19308
1.19444
1.19616
1.19816
172.924
116.318
101.327
95.3976
91.9809
89.0618
85.9004
82.2669
78.1891
73.8315
69.4163
65.1651
61.259
57.8176
54.8968
52.4982
50.5853
49.0991
47.971
47.1322
46.5188
46.075
45.7538
45.5168
45.3341
45.1823
45.0443
44.908
44.7652
44.6109
44.4427
44.26
44.0637
43.8557
43.6385
43.4152
43.1889
42.9629
42.7406
42.525
42.3191
42.1258
41.9475
41.7868
41.6457
41.5263
41.4305
41.3599
41.3162
41.2977
41.3037
41.3339
41.3881
41.4659
41.567
41.6905
41.8358
42.0015
42.1862
42.3877
42.6035
42.8306
43.0652
43.3026
43.5378
43.7648
43.9769
44.1668
44.3267
44.4487
44.5247
44.5468
44.5077
44.401
44.2211
43.9635
43.6249
43.2027
42.6952
42.1008
41.4177
40.6433
39.7803
38.8441
37.835
36.7538
35.6024
34.3843
33.1056
31.7745
30.4021
29.0021
27.5905
26.1849
24.8041
23.4667
22.1905
20.9909
19.8808
18.8698
17.9641
17.1667
16.4778
15.8955
15.4159
15.0341
14.7444
14.5404
14.4155
14.3622
14.3729
14.4395
14.5521
14.6963
14.8569
15.0177
15.1628
15.2784
15.3543
15.3871
15.3804
15.3423
15.2734
15.1474
14.8909
14.3871
13.5193
12.2399
10.617
8.82164
7.06178
5.50792
4.25065
3.3017
2.62172
2.15156
1.8336
1.62117
1.48009
1.38663
1.32482
1.28402
1.25718
1.23962
1.22819
1.2208
1.21602
1.21289
1.21073
1.20911
1.20775
1.20647
1.20517
1.2038
1.20233
1.20077
1.19912
1.19741
1.19566
1.1939
1.19214
1.19042
1.18876
1.18715
1.18562
1.18418
1.18283
1.18158
1.18046
1.17947
1.17863
1.17797
1.17751
1.17729
1.17734
1.17768
1.17836
1.17938
1.18067
1.18217
171.656
115.015
99.7714
93.6868
90.1728
87.1632
83.8931
80.1317
75.9236
71.46
66.9899
62.7526
58.9313
55.6331
52.892
50.6859
48.9586
47.6382
46.6497
45.923
45.3964
45.0177
44.7443
44.5418
44.3838
44.2499
44.1253
43.9992
43.8647
43.7174
43.5551
43.3773
43.1846
42.9785
42.7613
42.5354
42.3034
42.0683
41.8327
41.5993
41.3707
41.1493
40.9373
40.7369
40.5501
40.3787
40.2245
40.0892
39.9744
39.8792
39.8027
39.7448
39.7054
39.6846
39.6825
39.6991
39.7342
39.7877
39.8589
39.947
40.0507
40.1683
40.2974
40.4351
40.5775
40.7203
40.858
40.9846
41.0934
41.1771
41.2284
41.2395
41.2034
41.1134
40.9635
40.7488
40.4653
40.1099
39.6796
39.1718
38.5834
37.9119
37.1668
36.3465
35.4491
34.4733
33.419
32.2879
31.0842
29.8156
28.4929
27.1304
25.7457
24.3588
22.9911
21.6645
20.3994
19.2144
18.1243
17.1402
16.2691
15.514
14.8747
14.3483
13.9298
13.6132
13.3914
13.257
13.2022
13.2187
13.2981
13.4318
13.6093
13.8155
14.0345
14.25
14.4458
14.6077
14.725
14.7923
14.8113
14.7872
14.7205
14.5899
14.3353
13.8585
13.0572
11.8835
10.389
8.71918
7.06038
5.57248
4.34743
3.4056
2.7179
2.23343
1.89977
1.67284
1.5194
1.41584
1.34594
1.2987
1.26675
1.2451
1.23039
1.22034
1.21339
1.20847
1.20483
1.20197
1.19956
1.1974
1.19536
1.19335
1.19134
1.18932
1.18729
1.18525
1.18323
1.18124
1.17929
1.17742
1.17561
1.1739
1.17227
1.17075
1.16934
1.16804
1.16686
1.16582
1.16492
1.16419
1.16365
1.16333
1.16324
1.1634
1.16384
1.16457
1.1655
1.16658
168.215
112.139
96.8069
90.6702
87.1836
84.2575
81.1036
77.476
73.4117
69.0997
64.7897
60.7207
57.0734
53.9491
51.3746
49.321
47.7272
46.5187
45.6209
44.9655
44.4934
44.1559
43.9133
43.7342
43.5942
43.4751
43.363
43.2484
43.1247
42.9878
42.8356
42.6673
42.4833
42.2848
42.0734
41.8513
41.6206
41.3836
41.1427
40.9
40.6577
40.4178
40.1823
39.9529
39.7314
39.5193
39.3183
39.13
38.956
38.7957
38.6486
38.5143
38.3931
38.2854
38.1917
38.1126
38.0487
38.0005
37.9685
37.9528
37.9535
37.97
38.0016
38.0468
38.1032
38.168
38.2373
38.3062
38.3693
38.4202
38.4519
38.4574
38.4294
38.361
38.2461
38.079
37.855
37.5701
37.2202
36.8017
36.3114
35.7516
35.1192
34.4099
33.6194
32.7433
31.7791
30.726
29.5865
28.3672
27.0787
25.7364
24.3596
22.9711
21.5957
20.2589
18.9848
17.7949
16.7067
15.7326
14.8803
14.1527
13.5487
13.0643
12.6931
12.4276
12.2595
12.1802
12.1806
12.2518
12.3847
12.5701
12.7968
13.0494
13.3117
13.567
13.7995
13.9947
14.1416
14.234
14.2716
14.2577
14.1918
14.0554
13.798
13.3367
12.5832
11.4938
10.11
8.55712
7.00071
5.5876
4.40702
3.48444
2.79899
2.30748
1.96293
1.72446
1.56036
1.4476
1.37
1.31643
1.2793
1.25341
1.23522
1.22229
1.21294
1.20602
1.2007
1.19642
1.19281
1.18963
1.18672
1.18397
1.18134
1.17879
1.17631
1.17391
1.17157
1.16932
1.16717
1.16511
1.16316
1.16132
1.1596
1.158
1.15651
1.15515
1.15392
1.15282
1.15187
1.15108
1.15046
1.15003
1.14981
1.14982
1.15005
1.15051
1.15114
1.15188
163.111
108.17
92.9325
86.8513
83.5
80.7912
77.9173
74.6075
70.8737
66.8825
62.8669
59.0558
55.6262
52.6809
50.2505
48.3113
46.8071
45.6682
44.8236
44.2086
43.7674
43.4534
43.2294
43.0658
42.9395
42.833
42.7335
42.6317
42.5211
42.3976
42.2589
42.1041
41.9331
41.7467
41.5462
41.3331
41.1094
40.8767
40.6369
40.392
40.1436
39.8933
39.6427
39.3933
39.1465
38.9036
38.6661
38.4353
38.2127
37.9982
37.7912
37.5916
37.3999
37.2167
37.0428
36.8794
36.7277
36.5889
36.4644
36.3554
36.2629
36.188
36.1309
36.0919
36.07
36.064
36.0714
36.0887
36.1117
36.1349
36.152
36.1562
36.1405
36.0976
36.0209
35.9041
35.7417
35.5289
35.2601
34.9334
34.5456
34.092
33.567
32.9634
32.2738
31.4908
30.6086
29.6239
28.5372
27.3538
26.0843
24.7452
23.3582
21.9493
20.5475
19.1823
17.8823
16.6721
15.5718
14.5954
13.7506
13.04
12.4612
12.0087
11.6744
11.4493
11.3235
11.2871
11.3303
11.4433
11.6164
11.8398
12.1019
12.3868
12.6783
12.9601
13.2163
13.4327
13.5984
13.7066
13.7559
13.7478
13.6805
13.5373
13.2747
12.8217
12.1035
11.0828
9.79538
8.35077
6.8954
5.562
4.43442
3.54045
2.86555
2.37341
2.02248
1.77542
1.60248
1.48155
1.39678
1.3371
1.29481
1.26459
1.24276
1.22676
1.21483
1.20572
1.19854
1.19267
1.18772
1.18339
1.1795
1.17593
1.1726
1.16946
1.16649
1.16367
1.161
1.15846
1.15607
1.15383
1.15172
1.14976
1.14793
1.14624
1.14469
1.14327
1.14198
1.14083
1.13983
1.13898
1.13829
1.13777
1.13744
1.1373
1.13735
1.13759
1.13796
1.13843
156.495
103.337
88.4109
82.5035
79.3852
76.9994
74.5261
71.665
68.3912
64.8359
61.204
57.7081
54.5213
51.7527
49.4451
47.5882
46.1378
45.0335
44.2113
43.6113
43.1806
42.8753
42.6593
42.5039
42.3869
42.2911
42.2037
42.1154
42.0195
41.9117
41.7894
41.6511
41.4965
41.326
41.1403
40.9405
40.7282
40.5045
40.2711
40.0293
39.7805
39.526
39.2668
39.0043
38.7394
38.4732
38.2069
37.9417
37.6789
37.4188
37.161
36.9055
36.6529
36.404
36.1602
35.9228
35.6937
35.4748
35.2682
35.0761
34.9006
34.7438
34.6076
34.4932
34.4014
34.3324
34.2851
34.2576
34.2467
34.2477
34.2553
34.2629
34.2633
34.2492
34.2133
34.1487
34.0488
33.9086
33.7236
33.489
33.1991
32.8472
32.4246
31.9215
31.327
30.6303
29.8221
28.8962
27.8508
26.6899
25.4242
24.0718
22.6571
21.2103
19.765
18.3558
17.0157
15.7733
14.651
13.664
12.8199
12.1201
11.5604
11.1334
10.829
10.6364
10.5442
10.5414
10.6171
10.7609
10.9627
11.2126
11.4982
11.8037
12.1128
12.4094
12.6783
12.9057
13.0807
13.1968
13.2515
13.2449
13.1741
13.0232
12.7537
12.3051
11.6146
10.6525
9.45189
8.10927
6.75369
5.50337
4.43513
3.57706
2.9195
2.43219
2.07888
1.82593
1.64586
1.51775
1.42635
1.36077
1.31335
1.27871
1.25309
1.23385
1.21914
1.20764
1.19841
1.1908
1.18435
1.17875
1.17378
1.1693
1.1652
1.16142
1.15791
1.15465
1.15161
1.14878
1.14615
1.1437
1.14144
1.13934
1.13742
1.13565
1.13403
1.13256
1.13123
1.13004
1.12899
1.1281
1.12735
1.12676
1.12633
1.12607
1.12597
1.12603
1.12621
1.12647
149.658
98.6394
84.1551
78.4847
75.6355
73.5991
71.5505
69.1611
66.3677
63.2626
60.0192
56.8317
53.869
51.2485
49.0279
47.2143
45.7788
44.673
43.8413
43.229
42.7867
42.4721
42.2501
42.0924
41.9767
41.8855
41.8058
41.7278
41.6445
41.5509
41.4441
41.3221
41.184
41.0298
40.8598
40.6747
40.4755
40.2631
40.0388
39.8034
39.5581
39.3036
39.0409
38.7708
38.4941
38.2115
37.9238
37.632
37.3374
37.0403
36.7406
36.4385
36.1346
35.8302
35.5267
35.2259
34.9301
34.6418
34.3638
34.0991
33.8508
33.6219
33.4156
33.2345
33.0808
32.9559
32.8605
32.7937
32.7537
32.7368
32.7382
32.7516
32.77
32.7857
32.7907
32.7778
32.7402
32.6718
32.567
32.4195
32.2222
31.966
31.6399
31.2309
30.7245
30.1063
29.3632
28.4856
27.469
26.3165
25.0391
23.6567
22.1974
20.6962
19.1924
17.7265
16.3363
15.0545
13.9056
12.9052
12.0602
11.3699
10.8279
10.4241
10.1462
9.98148
9.91706
9.94077
10.0411
10.207
10.428
10.6945
10.9935
11.3091
11.6254
11.927
12.1992
12.4289
12.6059
12.7234
12.7787
12.7707
12.6953
12.5367
12.2604
11.8139
11.1451
10.2317
9.106
7.85463
6.59164
5.42179
4.41419
3.59581
2.96025
2.48225
2.13025
1.87419
1.68893
1.55493
1.45769
1.38668
1.33435
1.29536
1.26593
1.24336
1.22575
1.21173
1.20033
1.19085
1.1828
1.17583
1.1697
1.16424
1.15932
1.15486
1.15078
1.14705
1.14363
1.14049
1.13761
1.13496
1.13254
1.13032
1.12829
1.12645
1.12477
1.12325
1.12188
1.12065
1.11957
1.11863
1.11784
1.11718
1.11668
1.11632
1.1161
1.11601
1.11602
1.11611
143.035
94.3921
80.4638
75.0774
72.5049
70.8026
69.1502
67.1977
64.8483
62.1585
59.2714
56.3625
53.5957
51.0949
48.9329
47.1339
45.6852
44.5514
43.686
43.0401
42.5678
42.2285
41.9877
41.817
41.6939
41.6003
41.5225
41.45
41.3752
41.2926
41.1984
41.0903
40.9667
40.8273
40.6717
40.5005
40.3141
40.1131
39.8984
39.6706
39.4305
39.1787
38.9157
38.6422
38.3585
38.0653
37.763
37.4525
37.1346
36.8098
36.4783
36.1405
35.7971
35.4496
35.0996
34.7492
34.4012
34.0584
33.7241
33.402
33.0961
32.8103
32.5485
32.3147
32.112
31.9433
31.8103
31.7137
31.6523
31.6233
31.6226
31.6442
31.6808
31.7245
31.7671
31.8008
31.8182
31.8126
31.7774
31.7053
31.5878
31.4144
31.1715
30.8434
30.4121
29.8593
29.168
28.3253
27.3243
26.1667
24.8643
23.4392
21.9237
20.3583
18.7882
17.2599
15.8166
14.4943
13.3192
12.3067
11.4618
10.7814
10.2563
9.87346
9.6185
9.4767
9.43398
9.47725
9.59438
9.77409
10.0057
10.2794
10.5821
10.8982
11.2128
11.5109
11.7786
12.0036