/*--------------------------------*- C++ -*----------------------------------*\
  =========                 |
  \\      /  F ield         | OpenFOAM: The Open Source CFD Toolbox
   \\    /   O peration     | Website:  https://openfoam.org
    \\  /    A nd           | Version:  9
     \\/     M anipulation  |
\*---------------------------------------------------------------------------*/
FoamFile
{
    format      ascii;
    class       volScalarField;
    location    "0.07";
    object      k;
}
// * * * * * * * * * * * * * * * * * * * * * * * * * * * * * * * * * * * * * //

dimensions      [0 2 -2 0 0 0 0];

internalField   nonuniform List<scalar> 
12225
(
0.266534
0.160512
0.103907
0.0741436
0.0580301
0.0485865
0.0423564
0.0377305
0.0339921
0.0308162
0.0280402
0.0255747
0.0233752
0.0214476
0.0199023
0.0193387
0.0237826
0.0794013
0.33509
0.250069
0.196466
0.164462
0.144127
0.129963
0.119178
0.110368
0.10282
0.0961488
0.0901163
0.084567
0.0794123
0.0746609
0.0705558
0.0686541
0.0764755
0.142111
0.345305
0.28578
0.239414
0.20648
0.182931
0.165469
0.151891
0.140837
0.131509
0.123436
0.116326
0.109989
0.104319
0.0993266
0.0953559
0.0944989
0.106362
0.171858
0.350165
0.304874
0.265271
0.233915
0.209584
0.190538
0.17528
0.162716
0.152113
0.143
0.135074
0.128145
0.122121
0.117064
0.113467
0.113731
0.127472
0.187644
0.353194
0.316517
0.282382
0.253425
0.229607
0.210114
0.194023
0.180539
0.169069
0.159196
0.150645
0.143247
0.136944
0.131862
0.128621
0.129684
0.143628
0.195794
0.355226
0.324168
0.294341
0.267876
0.245167
0.225914
0.209585
0.195648
0.183654
0.173273
0.164272
0.15652
0.15
0.144892
0.141889
0.143311
0.156272
0.199654
0.356639
0.329436
0.302983
0.278827
0.257459
0.238832
0.222671
0.208632
0.196403
0.185733
0.176447
0.168453
0.161773
0.156628
0.153718
0.155097
0.166379
0.201275
0.357639
0.333161
0.309349
0.287231
0.267241
0.249444
0.233708
0.219827
0.207591
0.196824
0.187402
0.179275
0.172494
0.167299
0.164355
0.16539
0.174679
0.201943
0.35835
0.335827
0.314081
0.293712
0.275041
0.258156
0.243003
0.229461
0.217395
0.206689
0.197265
0.189104
0.182281
0.177037
0.173967
0.174472
0.181717
0.20245
0.358853
0.33774
0.3176
0.298705
0.281243
0.265278
0.25079
0.237707
0.225945
0.215429
0.206116
0.198014
0.19121
0.18593
0.182686
0.182577
0.187898
0.203246
0.359206
0.339106
0.320202
0.302526
0.286137
0.271057
0.257265
0.244713
0.233346
0.22312
0.214015
0.206055
0.19933
0.194044
0.190618
0.189895
0.193508
0.204544
0.359431
0.33999
0.321947
0.305178
0.289642
0.275311
0.262151
0.250117
0.239169
0.229276
0.220433
0.212669
0.206071
0.200816
0.197248
0.196012
0.198296
0.206233
0.359592
0.340635
0.323259
0.307234
0.292437
0.278793
0.266242
0.254738
0.244243
0.234734
0.226212
0.218707
0.212297
0.207132
0.20348
0.201822
0.202996
0.208431
0.359717
0.341142
0.324326
0.308965
0.294866
0.281904
0.269994
0.259073
0.249101
0.240053
0.231932
0.224763
0.218611
0.213591
0.2099
0.207873
0.208064
0.211374
0.359806
0.341511
0.32513
0.310319
0.296837
0.284517
0.273242
0.26293
0.253528
0.245007
0.237361
0.230605
0.224785
0.21998
0.216323
0.214024
0.213423
0.215047
0.359863
0.341754
0.325682
0.311292
0.298314
0.286553
0.275863
0.266144
0.257325
0.249364
0.242241
0.235958
0.230535
0.226019
0.222482
0.220043
0.218883
0.219282
0.359894
0.341896
0.326023
0.311922
0.299319
0.288
0.277804
0.268611
0.260334
0.252914
0.246316
0.240521
0.235527
0.231346
0.228007
0.225558
0.224076
0.223684
0.359904
0.34196
0.326198
0.312274
0.299916
0.288905
0.279071
0.270283
0.262442
0.255474
0.249326
0.243961
0.239356
0.235497
0.232377
0.229999
0.228375
0.227539
0.359895
0.341955
0.326225
0.312369
0.300117
0.289252
0.279603
0.271035
0.263441
0.256739
0.250865
0.245766
0.241405
0.237747
0.234765
0.232435
0.230734
0.22965
0.35986
0.341848
0.326022
0.312051
0.299673
0.288682
0.278917
0.27025
0.262576
0.255814
0.249895
0.244762
0.240368
0.23667
0.23363
0.231212
0.229381
0.228109
0.359794
0.341604
0.325514
0.311214
0.298469
0.287101
0.27697
0.267963
0.259984
0.252951
0.246796
0.241455
0.236875
0.233005
0.2298
0.227215
0.22521
0.223749
0.359661
0.34108
0.324429
0.309463
0.296017
0.283969
0.27321
0.263643
0.255177
0.247728
0.241218
0.235576
0.230736
0.226638
0.223226
0.220449
0.218259
0.216614
0.359403
0.340062
0.322382
0.30629
0.291748
0.278709
0.267095
0.256811
0.247756
0.239831
0.232939
0.226989
0.221899
0.217593
0.214002
0.211065
0.208725
0.206935
0.358939
0.338237
0.318861
0.301066
0.285013
0.270723
0.258111
0.247057
0.237422
0.229068
0.221865
0.215693
0.210443
0.20602
0.202339
0.199326
0.196915
0.195055
0.358154
0.335156
0.313193
0.293055
0.275095
0.259366
0.245758
0.234026
0.223955
0.215344
0.208008
0.201786
0.196541
0.192153
0.188519
0.185555
0.183185
0.181353
0.35689
0.330124
0.30438
0.281215
0.261091
0.243941
0.229471
0.217346
0.207148
0.19858
0.191392
0.185375
0.180359
0.176201
0.172787
0.170019
0.167818
0.166124
0.354911
0.321884
0.29073
0.263896
0.241614
0.223393
0.208559
0.196486
0.186653
0.178562
0.171893
0.166394
0.16187
0.158164
0.155154
0.152741
0.150843
0.149399
0.351831
0.30778
0.268958
0.238131
0.214277
0.195881
0.181597
0.170392
0.161545
0.154472
0.148758
0.14413
0.140385
0.137367
0.134957
0.133061
0.131605
0.130531
0.345368
0.280309
0.231595
0.197664
0.173939
0.157016
0.144637
0.135354
0.128263
0.122812
0.118534
0.115172
0.112533
0.110477
0.1089
0.107723
0.106884
0.106337
0.300132
0.214271
0.158146
0.121361
0.0971799
0.0811804
0.0704362
0.0630348
0.0577865
0.054034
0.0513337
0.0493419
0.0478554
0.0467471
0.0459329
0.0453541
0.0449674
0.0447391
0.0785009
0.11676
0.132533
0.138695
0.142687
0.1443
0.144199
0.142655
0.139
0.142465
0.141339
0.141365
0.141043
0.141416
0.140567
0.140217
0.143351
0.148969
0.15504
0.159924
0.162996
0.166168
0.17377
0.185733
0.201498
0.220042
0.240247
0.261171
0.282123
0.302634
0.322405
0.341264
0.359124
0.375954
0.391763
0.406584
0.420464
0.433457
0.445624
0.457024
0.467718
0.477765
0.487224
0.496154
0.504617
0.512683
0.520425
0.527932
0.535312
0.542591
0.549432
0.555859
0.561899
0.567555
0.572825
0.577697
0.582157
0.586187
0.589767
0.592875
0.595489
0.597583
0.599132
0.600112
0.600498
0.600265
0.599391
0.597855
0.595636
0.592719
0.589091
0.584741
0.579663
0.573855
0.56732
0.560063
0.552097
0.543436
0.534103
0.524122
0.513532
0.502386
0.490794
0.479086
0.468682
0.46228
0.457038
0.451804
0.446338
0.44058
0.434525
0.428189
0.421594
0.414769
0.407742
0.400541
0.393193
0.385721
0.378145
0.37048
0.362736
0.354917
0.347022
0.339041
0.330957
0.322737
0.31433
0.305652
0.296509
0.286686
0.276551
0.265699
0.253811
0.240631
0.225983
0.209855
0.192594
0.175004
0.166912
0.163547
0.160007
0.158488
0.161721
0.152474
0.134995
0.113067
0.0906095
0.0708251
0.0554622
0.0447383
0.0378712
0.0337608
0.0314347
0.0301965
0.0296004
0.0293757
0.0293607
0.0294585
0.0296105
0.0297814
0.0299501
0.0301049
0.03024
0.0303536
0.0304469
0.0305241
0.0305832
0.030613
0.0306137
0.030588
0.0305389
0.0304701
0.0303848
0.0302864
0.030178
0.0300623
0.0299414
0.029817
0.02969
0.029561
0.0294301
0.0292975
0.0291635
0.0290287
0.0288938
0.0287595
0.0286262
0.0284942
0.028363
0.0282317
0.0281012
0.0279723
0.0278419
0.027708
0.0275694
0.0274257
0.0272764
0.027121
0.0269437
0.0267089
0.121315
0.16898
0.196141
0.21291
0.222476
0.227841
0.230834
0.232742
0.234388
0.240128
0.249208
0.261548
0.27909
0.300417
0.330939
0.365903
0.402216
0.434485
0.461807
0.483146
0.498258
0.5079
0.513579
0.516899
0.519292
0.521799
0.525106
0.529651
0.535697
0.54337
0.552679
0.563534
0.575775
0.589195
0.603571
0.618679
0.634311
0.650287
0.666459
0.682707
0.698945
0.715107
0.731149
0.747042
0.762767
0.778312
0.793672
0.808848
0.823847
0.838395
0.852816
0.867143
0.881358
0.895429
0.909319
0.922983
0.936371
0.949427
0.962092
0.974298
0.985979
0.997059
1.00746
1.01712
1.02594
1.03384
1.04076
1.0466
1.05131
1.05481
1.05702
1.05791
1.05741
1.05549
1.05211
1.04724
1.04087
1.033
1.02363
1.01277
1.00045
0.986697
0.971561
0.95509
0.937256
0.919133
0.90097
0.882342
0.863143
0.843384
0.82312
0.802429
0.781396
0.76011
0.738659
0.717125
0.695587
0.674114
0.652769
0.631604
0.610661
0.589971
0.569558
0.549431
0.529593
0.510032
0.490724
0.47162
0.45262
0.433309
0.413027
0.392374
0.371449
0.350538
0.330164
0.311131
0.294281
0.279686
0.267308
0.261917
0.255821
0.248727
0.237826
0.219453
0.194372
0.165672
0.136999
0.111359
0.0905176
0.0749116
0.0640048
0.056801
0.0522623
0.0495311
0.0479825
0.0471911
0.0468747
0.0468481
0.0469895
0.0472195
0.0474869
0.0477594
0.0480175
0.04825
0.0484515
0.04862
0.0487565
0.048857
0.0489214
0.0489524
0.0489535
0.0489286
0.0488817
0.0488167
0.0487374
0.0486469
0.0485483
0.0484437
0.0483349
0.0482229
0.0481084
0.047992
0.0478742
0.0477556
0.047637
0.0475191
0.0474025
0.0472873
0.0471736
0.0470603
0.0469451
0.046831
0.0467155
0.0465965
0.0464729
0.0463444
0.0462106
0.046075
0.0459171
0.0457428
0.179323
0.232714
0.265721
0.28635
0.299684
0.309052
0.316924
0.325516
0.337313
0.352012
0.371496
0.397691
0.430867
0.469194
0.510279
0.549907
0.584096
0.609667
0.62538
0.631778
0.630955
0.625914
0.61971
0.61478
0.612706
0.614276
0.619688
0.628751
0.641039
0.655993
0.672993
0.69142
0.710702
0.730355
0.749994
0.76935
0.788254
0.806629
0.824465
0.841798
0.858696
0.875237
0.891504
0.907572
0.923508
0.939365
0.955183
0.970992
0.986808
1.00264
1.01855
1.03452
1.05053
1.06654
1.08249
1.09833
1.11398
1.12938
1.14445
1.15909
1.17323
1.18676
1.19958
1.21159
1.22269
1.23275
1.24169
1.24939
1.25576
1.2607
1.26412
1.26594
1.26609
1.26452
1.26117
1.25601
1.24902
1.24018
1.2295
1.21699
1.20266
1.18656
1.16872
1.14913
1.12773
1.10527
1.08239
1.05887
1.03468
1.00984
0.984449
0.958607
0.932432
0.90604
0.879547
0.853062
0.826689
0.800519
0.774633
0.749099
0.723973
0.699298
0.675103
0.651408
0.628219
0.605533
0.583333
0.561584
0.540222
0.519102
0.497824
0.476122
0.453848
0.430827
0.40706
0.382922
0.359282
0.337385
0.319252
0.306815
0.298798
0.291761
0.281389
0.263998
0.238886
0.208273
0.175845
0.145235
0.119054
0.0985148
0.083563
0.0733318
0.0666663
0.0624981
0.0600022
0.0586007
0.0579055
0.0576584
0.0576864
0.0578739
0.0581439
0.0584458
0.0587472
0.0590282
0.0592772
0.0594879
0.0596597
0.0597905
0.0598804
0.0599317
0.0599483
0.0599341
0.0598935
0.059831
0.0597506
0.0596563
0.0595513
0.0594387
0.0593205
0.0591984
0.0590735
0.0589468
0.058819
0.0586906
0.0585626
0.0584357
0.0583105
0.0581874
0.0580666
0.0579477
0.057829
0.0577115
0.0575936
0.0574743
0.0573529
0.0572304
0.0571082
0.0569932
0.056877
0.0567821
0.238711
0.300145
0.340366
0.36631
0.384118
0.397989
0.411394
0.427268
0.445284
0.467162
0.494222
0.526703
0.563262
0.60096
0.635934
0.664357
0.683543
0.692612
0.692752
0.686771
0.678227
0.670479
0.666012
0.666209
0.671465
0.681477
0.695534
0.712741
0.732179
0.752997
0.774462
0.795985
0.817126
0.837591
0.857215
0.875937
0.893782
0.910832
0.927204
0.943035
0.958462
0.973615
0.98861
1.00355
1.0185
1.03354
1.04869
1.06399
1.07942
1.09504
1.11086
1.12687
1.14304
1.1593
1.17562
1.19191
1.20812
1.22414
1.23991
1.25531
1.27025
1.28461
1.29827
1.31112
1.32304
1.33389
1.34356
1.35193
1.35887
1.36428
1.36805
1.3701
1.37033
1.36868
1.3651
1.35954
1.35197
1.34238
1.33078
1.31716
1.30156
1.28401
1.26451
1.24306
1.21958
1.19478
1.16932
1.14311
1.11617
1.08857
1.06042
1.03185
1.00298
0.97396
0.944925
0.916001
0.88731
0.858957
0.831037
0.803629
0.776798
0.750591
0.725045
0.70018
0.676006
0.652522
0.629712
0.607541
0.585946
0.564816
0.543924
0.522892
0.501512
0.479511
0.456649
0.432859
0.408402
0.384064
0.361477
0.34272
0.328736
0.318279
0.307863
0.293216
0.271578
0.243041
0.210215
0.176842
0.146402
0.121198
0.102033
0.0884607
0.079364
0.0735108
0.0698723
0.0677033
0.0664977
0.0659183
0.0657382
0.0658038
0.0660104
0.0662878
0.066589
0.0668837
0.0671531
0.0673862
0.0675787
0.0677285
0.0678348
0.0678995
0.067926
0.0679185
0.0678812
0.067819
0.0677361
0.0676369
0.067525
0.0674038
0.067276
0.0671436
0.0670082
0.066871
0.0667328
0.0665945
0.0664569
0.0663207
0.0661867
0.0660554
0.0659272
0.065802
0.0656791
0.0655583
0.0654388
0.0653202
0.0652024
0.0650871
0.0649773
0.064881
0.064797
0.0647469
0.301253
0.375113
0.423813
0.455983
0.478884
0.497442
0.515569
0.533364
0.552843
0.575557
0.601835
0.63067
0.659807
0.6862
0.70683
0.719629
0.724156
0.721757
0.715179
0.707743
0.702454
0.701393
0.705525
0.71486
0.728767
0.746289
0.766383
0.788068
0.810497
0.832987
0.855023
0.876246
0.896438
0.915498
0.933421
0.950277
0.966184
0.98129
0.995756
1.00974
1.02341
1.03688
1.05029
1.06372
1.07727
1.09097
1.10487
1.11898
1.13331
1.14792
1.1628
1.17795
1.19333
1.20889
1.22458
1.24032
1.25605
1.27167
1.2871
1.30222
1.31692
1.3311
1.34461
1.35735
1.36916
1.37992
1.38949
1.39774
1.40455
1.40979
1.41335
1.41513
1.41504
1.413
1.40896
1.40287
1.3947
1.38444
1.37209
1.35765
1.34115
1.32262
1.30207
1.27948
1.25482
1.2288
1.202
1.17439
1.14603
1.11701
1.08747
1.05754
1.02738
0.997146
0.966981
0.937033
0.907436
0.87831
0.849761
0.821875
0.794722
0.768356
0.742812
0.718113
0.694267
0.671269
0.6491
0.627722
0.607067
0.587026
0.567405
0.54786
0.528131
0.507937
0.486973
0.464995
0.441945
0.418147
0.39459
0.372905
0.354639
0.340136
0.327687
0.31384
0.295038
0.269565
0.238367
0.204433
0.171482
0.142661
0.119718
0.10286
0.0912238
0.0835404
0.0786268
0.0755787
0.0737694
0.0727782
0.0723221
0.0722081
0.0723033
0.0725163
0.0727849
0.0730676
0.0733373
0.0735773
0.0737789
0.0739387
0.0740546
0.0741275
0.0741603
0.0741568
0.0741214
0.0740588
0.0739734
0.0738698
0.0737519
0.0736234
0.0734873
0.0733461
0.0732017
0.0730555
0.0729086
0.072762
0.0726163
0.0724726
0.0723314
0.0721935
0.0720593
0.0719292
0.0718029
0.07168
0.07156
0.0714429
0.0713293
0.071221
0.0711216
0.0710388
0.0709738
0.070944
0.366219
0.452665
0.511499
0.551122
0.579435
0.601843
0.619178
0.634494
0.650142
0.667245
0.685661
0.704111
0.720587
0.733007
0.739949
0.741225
0.738037
0.732667
0.727813
0.725855
0.728353
0.735894
0.748248
0.764658
0.784129
0.805638
0.828257
0.85121
0.873886
0.895835
0.91675
0.936453
0.954868
0.972006
0.98794
1.00279
1.01671
1.02986
1.04241
1.05451
1.06633
1.07799
1.08961
1.10128
1.11308
1.12507
1.13728
1.14973
1.16244
1.17546
1.18879
1.20242
1.21633
1.23047
1.24479
1.25922
1.2737
1.28812
1.30241
1.31646
1.33015
1.34336
1.35597
1.36785
1.37886
1.38885
1.3977
1.40526
1.4114
1.416
1.41894
1.42011
1.41941
1.41678
1.41214
1.40546
1.3967
1.38584
1.3729
1.35787
1.34079
1.32166
1.30051
1.27734
1.2521
1.22564
1.19832
1.17017
1.14127
1.11174
1.08172
1.05136
1.02084
0.990311
0.95995
0.929912
0.900345
0.871382
0.843137
0.815704
0.789159
0.763556
0.73893
0.7153
0.692669
0.671027
0.650345
0.630576
0.611644
0.593431
0.575745
0.558267
0.540705
0.522777
0.504151
0.484509
0.463638
0.441585
0.418886
0.396667
0.376359
0.35897
0.344145
0.329682
0.3123
0.28938
0.260427
0.227311
0.193406
0.162243
0.136318
0.116545
0.102471
0.0929347
0.0866816
0.0826838
0.0802035
0.0787388
0.0779507
0.0776072
0.0775472
0.0776585
0.077863
0.0781075
0.0783563
0.0785863
0.078784
0.0789432
0.0790603
0.0791349
0.079169
0.079166
0.0791299
0.0790652
0.0789765
0.0788683
0.0787448
0.0786098
0.0784666
0.0783178
0.0781657
0.078012
0.077858
0.0777045
0.0775526
0.0774029
0.0772563
0.0771134
0.076975
0.0768413
0.0767127
0.0765886
0.0764689
0.0763538
0.0762441
0.0761418
0.0760502
0.075976
0.0759204
0.0758976
0.429255
0.529099
0.598519
0.645701
0.67831
0.699203
0.712967
0.722862
0.731092
0.73879
0.746045
0.752141
0.756034
0.756956
0.754901
0.750816
0.746406
0.743658
0.74429
0.749361
0.759158
0.773315
0.791055
0.811426
0.833475
0.85635
0.879341
0.901893
0.923597
0.944174
0.963454
0.981365
0.997908
1.01314
1.02717
1.04014
1.05218
1.06348
1.07417
1.08442
1.09437
1.10414
1.11386
1.1236
1.13345
1.14347
1.1537
1.16417
1.17488
1.1859
1.19723
1.20887
1.2208
1.23299
1.24538
1.25793
1.27055
1.28318
1.29571
1.30807
1.32013
1.33178
1.3429
1.35336
1.36302
1.37175
1.3794
1.38584
1.39093
1.39454
1.39656
1.39688
1.3954
1.39205
1.38675
1.37947
1.37017
1.35883
1.34547
1.33008
1.31268
1.2933
1.27194
1.24863
1.22334
1.19699
1.16975
1.14167
1.11286
1.08344
1.05356
1.0234
0.993137
0.962944
0.933005
0.903496
0.874576
0.846393
0.819069
0.792708
0.767388
0.743164
0.720069
0.698116
0.6773
0.657598
0.638972
0.62136
0.604672
0.588774
0.573468
0.558445
0.543394
0.528019
0.511974
0.494902
0.476507
0.456678
0.435663
0.414201
0.393446
0.374554
0.357907
0.342375
0.325389
0.304171
0.277309
0.245619
0.211837
0.179473
0.151473
0.129349
0.113113
0.101819
0.0942348
0.0892589
0.0860659
0.084082
0.0829159
0.0822988
0.082043
0.082016
0.0821245
0.0823035
0.0825084
0.0827094
0.0828877
0.0830337
0.0831416
0.0832096
0.0832384
0.0832306
0.0831899
0.0831203
0.0830264
0.0829125
0.0827828
0.0826413
0.0824913
0.0823357
0.0821769
0.0820168
0.0818567
0.0816977
0.0815407
0.0813865
0.0812359
0.0810895
0.0809481
0.0808122
0.0806822
0.0805576
0.0804387
0.0803256
0.0802194
0.0801218
0.0800355
0.0799659
0.0799135
0.0798905
0.487161
0.598909
0.677842
0.730025
0.762553
0.781501
0.791095
0.794538
0.794232
0.791779
0.788004
0.783181
0.77741
0.77102
0.764805
0.75998
0.7579
0.759688
0.765968
0.776774
0.791645
0.809807
0.830359
0.852413
0.875175
0.897982
0.920313
0.941776
0.962098
0.981106
0.998712
1.0149
1.0297
1.0432
1.05551
1.06676
1.0771
1.08666
1.09561
1.10408
1.1122
1.1201
1.12787
1.13562
1.14343
1.15134
1.15942
1.1677
1.17619
1.18495
1.19399
1.20332
1.21292
1.22278
1.23285
1.24308
1.25342
1.26379
1.27412
1.28433
1.2943
1.30394
1.31313
1.32174
1.32965
1.33673
1.34284
1.34784
1.3516
1.354
1.35492
1.35424
1.35188
1.34776
1.3418
1.33397
1.32422
1.31255
1.29895
1.28343
1.26599
1.24666
1.22544
1.20234
1.17748
1.15168
1.12496
1.0974
1.06911
1.04023
1.01093
0.981375
0.951765
0.922293
0.893156
0.864546
0.836641
0.809601
0.783564
0.75864
0.734913
0.712437
0.691242
0.671332
0.652691
0.635284
0.619054
0.603923
0.589782
0.576481
0.563806
0.551451
0.539089
0.526409
0.513047
0.498623
0.482792
0.465351
0.446365
0.426307
0.406069
0.386735
0.36902
0.352521
0.33542
0.315189
0.289997
0.259864
0.226838
0.194154
0.164926
0.141089
0.123079
0.110224
0.101383
0.095443
0.0915221
0.0889898
0.0874106
0.0864829
0.0859945
0.0857947
0.0857758
0.0858615
0.0859983
0.0861496
0.0862911
0.0864095
0.0864962
0.0865475
0.0865627
0.0865436
0.0864929
0.0864143
0.0863121
0.0861903
0.0860531
0.0859042
0.0857471
0.0855848
0.0854197
0.0852537
0.0850883
0.0849247
0.0847637
0.0846061
0.0844525
0.0843037
0.0841604
0.0840232
0.0838926
0.0837681
0.08365
0.0835389
0.0834354
0.0833412
0.0832582
0.0831904
0.0831374
0.0831105
0.537005
0.656751
0.740108
0.794421
0.827641
0.845177
0.851083
0.848683
0.840784
0.829672
0.817097
0.804364
0.792528
0.782584
0.775536
0.772313
0.773583
0.779608
0.790203
0.80481
0.822638
0.842813
0.864482
0.886883
0.909378
0.931453
0.952719
0.972893
0.991787
1.00929
1.02536
1.04001
1.05328
1.06526
1.07606
1.0858
1.0946
1.10261
1.10995
1.11676
1.12316
1.12925
1.13514
1.14093
1.14668
1.15248
1.15835
1.16436
1.17053
1.17691
1.1835
1.19034
1.19741
1.20471
1.21219
1.21984
1.2276
1.23542
1.24324
1.25097
1.25853
1.26584
1.27278
1.27925
1.28512
1.29029
1.29461
1.29797
1.30022
1.30127
1.30098
1.29925
1.29598
1.29111
1.28455
1.27627
1.26622
1.25438
1.24076
1.22534
1.20813
1.18915
1.16837
1.1458
1.12182
1.09688
1.071
1.04427
1.01681
0.988762
0.960289
0.931581
0.902843
0.874287
0.846131
0.818585
0.79185
0.766105
0.741505
0.71817
0.69619
0.67562
0.656483
0.638776
0.622468
0.607507
0.593818
0.5813
0.569824
0.559219
0.549256
0.539622
0.529983
0.520005
0.509307
0.497489
0.484182
0.469121
0.452261
0.433893
0.414697
0.395625
0.377494
0.360342
0.342972
0.323269
0.299322
0.270651
0.238699
0.206315
0.17657
0.151638
0.132293
0.118135
0.10817
0.101319
0.0966804
0.0935879
0.0915721
0.0903043
0.089552
0.0891482
0.0889722
0.0889373
0.0889815
0.0890616
0.089148
0.089223
0.0892751
0.0892984
0.0892906
0.0892522
0.0891852
0.0890925
0.0889779
0.0888452
0.0886982
0.0885405
0.0883754
0.0882059
0.0880343
0.0878627
0.0876924
0.0875246
0.0873602
0.0871998
0.0870441
0.0868938
0.0867494
0.0866116
0.0864808
0.0863567
0.0862397
0.0861302
0.0860289
0.0859368
0.0858556
0.0857877
0.0857321
0.0856994
0.570503
0.693906
0.781034
0.838092
0.872519
0.889463
0.892917
0.886372
0.873063
0.855949
0.837616
0.820203
0.805401
0.794484
0.788325
0.787381
0.791681
0.800862
0.814263
0.831051
0.850336
0.871266
0.893083
0.915144
0.936927
0.958027
0.978142
0.997059
1.01464
1.03081
1.04556
1.05889
1.07086
1.08156
1.09107
1.09951
1.10699
1.11363
1.11955
1.12487
1.12969
1.13412
1.13826
1.1422
1.146
1.14973
1.15347
1.15724
1.1611
1.16508
1.1692
1.17349
1.17795
1.18259
1.18738
1.1923
1.19733
1.20242
1.20753
1.21259
1.21755
1.22232
1.22681
1.23094
1.2346
1.23769
1.24009
1.24167
1.24234
1.24196
1.24043
1.23765
1.23353
1.22797
1.22092
1.21233
1.20215
1.19036
1.17694
1.16188
1.14517
1.12681
1.10678
1.08508
1.06228
1.03846
1.01366
0.987989
0.961546
0.93448
0.906965
0.879196
0.851393
0.823788
0.796622
0.770135
0.744551
0.720077
0.696885
0.675112
0.654855
0.63617
0.619076
0.603556
0.589566
0.577033
0.56586
0.555924
0.547073
0.539111
0.531794
0.524802
0.517792
0.510406
0.502246
0.492899
0.481977
0.469181
0.454396
0.437791
0.419887
0.401495
0.383429
0.365968
0.348373
0.328957
0.30593
0.278552
0.247804
0.216128
0.186424
0.160946
0.140702
0.125534
0.114613
0.106935
0.101612
0.0979642
0.0954999
0.0938714
0.0928298
0.0921949
0.0918349
0.0916537
0.0915817
0.0915693
0.0915817
0.0915969
0.0916003
0.0915834
0.0915424
0.0914761
0.0913855
0.0912729
0.0911412
0.0909938
0.0908342
0.0906656
0.0904911
0.0903135
0.0901349
0.0899574
0.0897822
0.0896105
0.089443
0.0892803
0.0891231
0.0889717
0.0888268
0.0886889
0.0885584
0.088435
0.088319
0.0882109
0.0881112
0.0880205
0.0879398
0.0878707
0.0878118
0.0877727
0.587734
0.713696
0.803375
0.862587
0.898397
0.915657
0.918232
0.909704
0.893616
0.873428
0.852318
0.832975
0.817435
0.807023
0.80238
0.80355
0.810116
0.821348
0.836354
0.854202
0.874008
0.89498
0.916449
0.937865
0.958792
0.978896
0.997932
1.01573
1.03219
1.04724
1.06089
1.07314
1.08406
1.0937
1.10216
1.10953
1.1159
1.12139
1.1261
1.13014
1.13359
1.13656
1.13913
1.14138
1.14339
1.14523
1.14696
1.14862
1.15027
1.15194
1.15366
1.15546
1.15735
1.15934
1.16142
1.1636
1.16586
1.16816
1.17049
1.17281
1.17506
1.1772
1.17915
1.18085
1.1822
1.18313
1.18354
1.18331
1.18236
1.18057
1.17783
1.17406
1.16916
1.16305
1.15566
1.14693
1.13681
1.12528
1.11231
1.09786
1.08191
1.06444
1.0454
1.02502
1.00357
0.981045
0.957503
0.933016
0.907694
0.881677
0.855141
0.828292
0.801366
0.774621
0.748328
0.722757
0.69817
0.674802
0.652851
0.632474
0.613778
0.59682
0.581612
0.568128
0.556302
0.546042
0.537228
0.529712
0.523316
0.517823
0.51297
0.50843
0.503852
0.498853
0.493022
0.485933
0.477187
0.466468
0.453615
0.438718
0.42218
0.404689
0.387006
0.369531
0.351841
0.332626
0.31031
0.284065
0.254552
0.223842
0.194595
0.169031
0.148289
0.132405
0.120717
0.112319
0.106364
0.102179
0.0992656
0.0972641
0.0959145
0.0950263
0.0944588
0.0941082
0.0938979
0.0937726
0.0936926
0.0936316
0.0935718
0.0935023
0.0934172
0.0933139
0.0931921
0.0930532
0.0928993
0.0927331
0.0925577
0.0923758
0.0921901
0.0920031
0.0918168
0.091633
0.0914527
0.0912771
0.0911067
0.090942
0.0907835
0.0906316
0.0904866
0.090349
0.090219
0.0900964
0.0899816
0.0898747
0.0897761
0.0896862
0.0896055
0.0895347
0.0894722
0.0894271
0.593293
0.719323
0.809898
0.870513
0.907814
0.926281
0.929562
0.921192
0.904835
0.884205
0.862797
0.843578
0.82873
0.819542
0.816468
0.819294
0.82736
0.839767
0.855542
0.873744
0.89353
0.914174
0.935079
0.955761
0.975844
0.995042
1.01315
1.03001
1.04555
1.05972
1.0725
1.08391
1.09401
1.10284
1.11047
1.117
1.12251
1.12708
1.1308
1.13378
1.13609
1.13782
1.13904
1.13984
1.14028
1.14043
1.14035
1.14009
1.13971
1.13924
1.13871
1.13815
1.13759
1.13704
1.13651
1.13602
1.13555
1.13512
1.1347
1.13428
1.13384
1.13334
1.13274
1.13199
1.13103
1.1298
1.12822
1.12621
1.12367
1.12051
1.11665
1.11199
1.10643
1.09991
1.09234
1.08366
1.07383
1.06278
1.05049
1.03689
1.02196
1.00562
0.987911
0.969078
0.949114
0.928024
0.905837
0.882612
0.858442
0.833461
0.807846
0.781814
0.755622
0.729556
0.703924
0.679037
0.655197
0.632677
0.611707
0.592466
0.575073
0.559588
0.546017
0.534317
0.524407
0.516169
0.509458
0.504102
0.499899
0.496609
0.493953
0.491594
0.489175
0.48629
0.482514
0.477415
0.470588
0.461707
0.450587
0.437267
0.422062
0.405561
0.388456
0.371193
0.353557
0.33455
0.312833
0.287604
0.259319
0.229734
0.201245
0.175962
0.15507
0.138749
0.126485
0.117485
0.110964
0.106273
0.102919
0.100541
0.0988705
0.097712
0.0969177
0.0963774
0.0960088
0.0957515
0.0955615
0.0954084
0.0952714
0.0951369
0.094997
0.0948474
0.0946866
0.0945148
0.0943334
0.0941442
0.0939495
0.0937517
0.0935529
0.0933552
0.0931602
0.0929694
0.0927838
0.0926042
0.0924309
0.0922645
0.092105
0.0919528
0.091808
0.091671
0.0915419
0.0914204
0.0913067
0.091201
0.0911034
0.091014
0.0909329
0.0908604
0.0907949
0.0907445
0.589402
0.713531
0.803642
0.865041
0.903938
0.924394
0.929753
0.923363
0.908812
0.889825
0.869965
0.852272
0.838957
0.831273
0.829588
0.833587
0.842531
0.855485
0.871479
0.889608
0.909079
0.929225
0.9495
0.969472
0.988801
1.00723
1.02458
1.04071
1.05555
1.06904
1.08118
1.09199
1.10149
1.10973
1.11677
1.12268
1.12754
1.13142
1.1344
1.13655
1.13795
1.13868
1.13881
1.13839
1.13751
1.13622
1.13457
1.13262
1.13043
1.12803
1.12545
1.12274
1.11991
1.117
1.11403
1.11101
1.10797
1.10492
1.10186
1.09881
1.09575
1.09269
1.08961
1.08648
1.08327
1.07993
1.07643
1.07269
1.06865
1.06423
1.05934
1.05391
1.04785
1.04107
1.0335
1.02507
1.01571
1.00536
0.993954
0.981432
0.967717
0.952753
0.936693
0.919494
0.901118
0.881541
0.860763
0.838817
0.815776
0.791764
0.766956
0.741584
0.715926
0.690305
0.665072
0.640585
0.617195
0.59522
0.574925
0.556515
0.540122
0.525809
0.513573
0.503355
0.495053
0.488526
0.483605
0.480092
0.47776
0.476353
0.475571
0.475072
0.47449
0.473401
0.471369
0.467957
0.462761
0.455453
0.445838
0.433918
0.419953
0.404447
0.388024
0.371134
0.353698
0.334955
0.3138
0.289517
0.262443
0.234083
0.206567
0.181846
0.161093
0.144579
0.131922
0.122442
0.115428
0.110271
0.106494
0.103741
0.101744
0.100303
0.0992668
0.0985198
0.0979755
0.0975691
0.0972528
0.0969927
0.0967649
0.0965534
0.0963482
0.0961433
0.0959359
0.0957249
0.0955106
0.095294
0.0950768
0.0948604
0.0946466
0.0944367
0.0942321
0.0940339
0.0938426
0.0936588
0.0934827
0.0933146
0.0931544
0.0930021
0.0928579
0.0927219
0.0925939
0.0924737
0.0923613
0.0922568
0.0921602
0.0920714
0.09199
0.0919161
0.0918482
0.0917935
0.578011
0.69895
0.787664
0.849432
0.890033
0.913093
0.921586
0.918554
0.90734
0.891485
0.87443
0.859148
0.847819
0.841697
0.841161
0.84592
0.855274
0.868334
0.884187
0.901981
0.920978
0.940556
0.960211
0.979541
0.998231
1.01605
1.03281
1.04839
1.06272
1.07575
1.08746
1.09786
1.10697
1.11483
1.12149
1.127
1.13143
1.13483
1.13728
1.13883
1.13956
1.13953
1.1388
1.13742
1.13547
1.13298
1.13002
1.12663
1.12288
1.1188
1.11442
1.10978
1.10492
1.09987
1.09466
1.08934
1.08392
1.07843
1.07292
1.06739
1.06188
1.0564
1.05096
1.04557
1.04022
1.03491
1.02959
1.02424
1.01881
1.01324
1.00746
1.0014
0.994971
0.988094
0.980687
0.972668
0.963958
0.954477
0.944137
0.932855
0.920551
0.907261
0.892902
0.877392
0.860654
0.842621
0.823257
0.80256
0.780581
0.757428
0.733279
0.708377
0.68303
0.6576
0.632489
0.608111
0.58487
0.563135
0.543211
0.525329
0.509634
0.496188
0.484979
0.475929
0.468914
0.463768
0.460299
0.458286
0.457481
0.457608
0.458355
0.459372
0.460282
0.46065
0.460032
0.457992
0.454131
0.448122
0.43977
0.429059
0.416206
0.401653
0.385958
0.369555
0.352442
0.334045
0.313465
0.290099
0.264229
0.237154
0.210759
0.186811
0.166425
0.149925
0.13704
0.127196
0.119765
0.114186
0.110011
0.106892
0.104567
0.102837
0.101547
0.100579
0.0998442
0.0992736
0.0988164
0.0984355
0.0981043
0.0978045
0.097524
0.0972554
0.096994
0.0967376
0.0964855
0.0962376
0.0959945
0.0957572
0.0955264
0.0953031
0.0950881
0.0948817
0.0946845
0.0944965
0.0943177
0.0941481
0.0939873
0.0938354
0.093692
0.0935573
0.0934307
0.0933121
0.0932013
0.0930983
0.0930029
0.0929147
0.0928334
0.0927587
0.0926893
0.0926314
0.560807
0.677895
0.764713
0.826651
0.869076
0.895186
0.907544
0.908806
0.901947
0.890187
0.876721
0.864363
0.855242
0.850638
0.851018
0.856207
0.865618
0.878467
0.893924
0.911208
0.929631
0.948611
0.967671
0.98643
1.00459
1.02192
1.03825
1.05345
1.06745
1.08018
1.09164
1.10182
1.11072
1.11838
1.12484
1.13013
1.13431
1.13744
1.13955
1.14072
1.14099
1.14042
1.13905
1.13695
1.13416
1.13073
1.1267
1.12214
1.11707
1.11156
1.10563
1.09932
1.09268
1.08574
1.07855
1.07115
1.06359
1.05591
1.04816
1.04037
1.03261
1.02491
1.0173
1.00982
1.0025
0.995355
0.988379
0.981565
0.97489
0.968312
0.961778
0.955222
0.948568
0.941732
0.934625
0.927155
0.919225
0.910743
0.901582
0.891705
0.881019
0.869417
0.856776
0.842969
0.827868
0.811363
0.79337
0.773853
0.752833
0.730405
0.706743
0.682109
0.656844
0.631357
0.606106
0.581568
0.558208
0.536446
0.516631
0.499016
0.483756
0.470909
0.460447
0.452274
0.446241
0.44216
0.439815
0.438964
0.439342
0.440658
0.442588
0.444774
0.446834
0.448322
0.448793
0.447814
0.444994
0.440018
0.432693
0.422998
0.411122
0.397456
0.382501
0.366661
0.349979
0.332017
0.312055
0.28961
0.264944
0.239195
0.214018
0.19099
0.171143
0.154826
0.141853
0.131753
0.123979
0.118026
0.113479
0.110009
0.10736
0.105337
0.103785
0.102587
0.101649
0.100901
0.10029
0.0997758
0.0993297
0.0989313
0.0985665
0.098226
0.097904
0.0975967
0.097302
0.0970191
0.0967473
0.0964868
0.0962375
0.0959997
0.0957734
0.0955586
0.0953552
0.095163
0.0949816
0.0948107
0.0946497
0.0944984
0.0943563
0.0942231
0.0940984
0.0939817
0.0938729
0.0937716
0.0936777
0.0935907
0.0935099
0.0934351
0.0933652
0.0933053
0.538271
0.651417
0.736217
0.798359
0.842823
0.872393
0.88921
0.895481
0.893735
0.886775
0.877461
0.868395
0.861631
0.858503
0.859617
0.86497
0.874149
0.886515
0.901349
0.917951
0.935686
0.954009
0.972464
0.990682
1.00837
1.0253
1.0413
1.05624
1.07003
1.08261
1.09395
1.10404
1.11289
1.1205
1.1269
1.13213
1.13623
1.13923
1.14118
1.14213
1.14211
1.14118
1.13937
1.13673
1.13331
1.12913
1.12425
1.11871
1.11256
1.10583
1.09857
1.09082
1.08263
1.07403
1.06509
1.05586
1.04639
1.03674
1.02697
1.01716
1.00736
0.997645
0.988076
0.978713
0.969609