/*--------------------------------*- C++ -*----------------------------------*\
  =========                 |
  \\      /  F ield         | OpenFOAM: The Open Source CFD Toolbox
   \\    /   O peration     | Website:  https://openfoam.org
    \\  /    A nd           | Version:  9
     \\/     M anipulation  |
\*---------------------------------------------------------------------------*/
FoamFile
{
    format      ascii;
    class       volScalarField;
    location    "0.07";
    object      nut;
}
// * * * * * * * * * * * * * * * * * * * * * * * * * * * * * * * * * * * * * //

dimensions      [0 2 -1 0 0 0 0];

internalField   nonuniform List<scalar> 
12225
(
3.04826e-05
1.83574e-05
1.18841e-05
8.48056e-06
6.63808e-06
5.55836e-06
4.84616e-06
4.31746e-06
3.89026e-06
3.52737e-06
3.21018e-06
2.9284e-06
2.67688e-06
2.45609e-06
2.27809e-06
2.20852e-06
2.68524e-06
8.81782e-06
0.000163226
0.000102252
8.23491e-05
7.31521e-05
6.79247e-05
6.42436e-05
6.1084e-05
5.8116e-05
5.5284e-05
5.25984e-05
5.00739e-05
4.77316e-05
4.56193e-05
4.38514e-05
4.27134e-05
4.30343e-05
4.43891e-05
5.25248e-05
0.0003394
0.000220943
0.00017896
0.00015771
0.000144766
0.000135675
0.000128371
0.000121934
0.000116013
0.000110494
0.000105359
0.000100648
9.64777e-05
9.31066e-05
9.1063e-05
9.11214e-05
9.03667e-05
9.36865e-05
0.000503635
0.000350026
0.000285387
0.000250189
0.000227877
0.000212076
0.000199699
0.000189186
0.000179785
0.000171146
0.000163128
0.000155732
0.000149093
0.000143538
0.0001396
0.000137167
0.000131048
0.0001278
0.000628759
0.000471718
0.000391693
0.000344336
0.000312972
0.000290319
0.000272622
0.000257831
0.000244831
0.000233025
0.000222117
0.000212016
0.00020282
0.00019483
0.000188359
0.000182207
0.000169987
0.000158958
0.000714181
0.000575727
0.000490623
0.000435333
0.000396761
0.000368082
0.000345433
0.000326542
0.000310066
0.000295217
0.000281554
0.000268883
0.000257225
0.000246766
0.00023747
0.000227187
0.000209127
0.000190101
0.000768855
0.000658212
0.000577289
0.000519268
0.000476327
0.000443215
0.000416539
0.000394115
0.000374548
0.000356958
0.000340807
0.000325815
0.000311906
0.000299105
0.000286982
0.00027272
0.00024961
0.000223169
0.000802464
0.000719808
0.000649195
0.00059329
0.000549182
0.000513707
0.000484357
0.00045931
0.000437298
0.00041746
0.00039923
0.000382276
0.000366432
0.00035155
0.00033685
0.000319148
0.000292091
0.000259461
0.00082259
0.000763586
0.000705966
0.000655775
0.000613462
0.00057782
0.000547385
0.000520873
0.000497281
0.000475867
0.000456111
0.000437668
0.000420312
0.00040374
0.000386917
0.000366566
0.000336852
0.000299745
0.000834442
0.000793451
0.000748802
0.000706322
0.00066807
0.000634247
0.000604332
0.000577622
0.000553454
0.000531277
0.000510669
0.000491321
0.000472975
0.000455225
0.000436896
0.000414833
0.000383824
0.000344238
0.000841349
0.000813144
0.000779814
0.000745562
0.000712722
0.000682231
0.000654245
0.00062856
0.000604853
0.000582793
0.00056209
0.000542501
0.000523777
0.000505459
0.000486347
0.000463565
0.000432583
0.000392569
0.000845024
0.00082472
0.000799628
0.000772368
0.00074488
0.000718264
0.000692999
0.000669198
0.000646788
0.000625624
0.000605543
0.000586378
0.000567909
0.00054968
0.000530546
0.00050796
0.000477997
0.000439099
0.000847291
0.000832414
0.00081372
0.000792567
0.000770294
0.000747873
0.000725886
0.000704624
0.000684193
0.000664599
0.000645796
0.000627695
0.000610125
0.00059267
0.000574312
0.000552911
0.000525218
0.000489323
0.000848788
0.000837838
0.000824328
0.000808703
0.000791661
0.000773867
0.000755826
0.000737878
0.00072023
0.000702997
0.000686229
0.000669915
0.000653945
0.000637979
0.000621185
0.000601882
0.000577535
0.000546188
0.000849696
0.000841319
0.000831578
0.000820424
0.000808065
0.000794816
0.000780995
0.000766875
0.000752666
0.000738526
0.000724559
0.000710811
0.000697233
0.000683583
0.000669243
0.000653005
0.000633034
0.000607629
0.000850197
0.000843334
0.000836025
0.000828057
0.000819375
0.000810039
0.000800168
0.00078991
0.000779411
0.000768803
0.000758195
0.000747654
0.000737175
0.000726606
0.000715546
0.000703208
0.000688397
0.000669845
0.000850444
0.000844368
0.000838429
0.000832426
0.000826228
0.000819774
0.000813061
0.000806128
0.000799042
0.000791878
0.000784714
0.000777607
0.000770567
0.000763514
0.000756218
0.000748226
0.000738846
0.000727283
0.00085054
0.000844799
0.00083949
0.000834469
0.00082962
0.000824869
0.000820175
0.000815535
0.000810967
0.000806508
0.000802203
0.000798088
0.000794174
0.000790424
0.000786722
0.000782836
0.000778413
0.000773023
0.000850527
0.000844784
0.000839519
0.000834623
0.000830022
0.000825681
0.000821595
0.000817781
0.000814272
0.000811109
0.000808333
0.000805976
0.000804053
0.000802553
0.000801422
0.00080055
0.000799767
0.000798849
0.000850329
0.000844023
0.000837855
0.000831761
0.000825769
0.000819968
0.000814473
0.0008094
0.00080485
0.000800909
0.000797637
0.000795073
0.000793234
0.000792107
0.000791653
0.000791794
0.000792415
0.000793345
0.000849779
0.000841906
0.000833367
0.000824339
0.000815155
0.000806175
0.000797707
0.000789984
0.000783166
0.000777351
0.000772587
0.000768888
0.000766237
0.000764597
0.000763905
0.000764077
0.000764998
0.000766496
0.000848275
0.000836424
0.000822509
0.000807582
0.000792669
0.000778539
0.000765673
0.000754323
0.000744591
0.000736486
0.000729959
0.00072493
0.000721305
0.000718981
0.000717846
0.000717782
0.00071865
0.000720257
0.000844378
0.000823524
0.000799278
0.000774718
0.000751734
0.000731277
0.000713632
0.000698765
0.000686495
0.000676589
0.000668807
0.000662922
0.000658727
0.000656039
0.000654687
0.000654515
0.000655358
0.000657
0.000834772
0.000795936
0.000755206
0.000718109
0.000686559
0.000660601
0.000639532
0.000622632
0.000609234
0.000598774
0.000590789
0.000584904
0.000580815
0.000578272
0.000577069
0.000577026
0.000577968
0.000579673
0.000812286
0.000742758
0.000681599
0.000632973
0.000595493
0.000566944
0.000545385
0.000528884
0.000516289
0.000506768
0.000499709
0.000494654
0.000491258
0.000489257
0.000488443
0.000488641
0.000489695
0.000491401
0.000762947
0.00065156
0.000573592
0.000520069
0.000482634
0.000456011
0.000436875
0.00042319
0.000413083
0.000405647
0.000400263
0.000396499
0.000394046
0.000392679
0.000392229
0.000392559
0.000393549
0.000395041
0.000664179
0.000515486
0.00043535
0.000387448
0.000356683
0.000336113
0.000321987
0.000312168
0.000305384
0.000300446
0.000296881
0.000294378
0.00029273
0.000291793
0.000291461
0.000291652
0.000292295
0.000293286
0.000493049
0.000344354
0.000282228
0.000248862
0.000228835
0.000216184
0.000207848
0.000202158
0.000198291
0.0001955
0.000193376
0.000191775
0.00019061
0.000189826
0.00018938
0.00018924
0.000189373
0.00018973
0.000262112
0.000171089
0.000137806
0.000120733
0.000110936
0.000105061
0.000101294
9.86841e-05
9.67917e-05
9.54128e-05
9.42477e-05
9.32858e-05
9.25172e-05
9.19312e-05
9.15156e-05
9.12575e-05
9.11433e-05
9.11562e-05
5.96372e-05
4.2576e-05
3.14234e-05
2.41135e-05
1.93078e-05
1.61276e-05
1.39916e-05
1.25197e-05
1.14754e-05
1.07274e-05
1.01889e-05
9.79144e-06
9.49441e-06
9.27252e-06
9.10904e-06
8.99226e-06
8.91361e-06
8.86638e-06
2.42716e-05
0.000165395
0.000188249
0.000202585
0.000210342
0.000213116
0.000212705
0.000208468
4.62139e-05
0.000205901
0.000205985
0.000205628
0.000207633
4.67291e-05
4.49286e-05
4.62109e-05
4.69207e-05
4.76704e-05
4.84643e-05
4.90942e-05
4.94836e-05
4.99632e-05
5.112e-05
5.28528e-05
5.50226e-05
5.74483e-05
5.99661e-05
6.24579e-05
6.48511e-05
6.71064e-05
6.92067e-05
7.11482e-05
7.29351e-05
7.45757e-05
7.60802e-05
7.74599e-05
7.87257e-05
7.98882e-05
8.09571e-05
8.19416e-05
8.285e-05
8.36899e-05
8.44686e-05
8.51925e-05
8.58683e-05
8.65024e-05
8.71016e-05
8.76734e-05
8.8226e-05
8.87753e-05
8.92846e-05
8.97559e-05
9.01922e-05
9.05948e-05
9.0964e-05
9.12997e-05
9.16011e-05
9.18674e-05
9.20974e-05
9.22898e-05
9.24433e-05
9.25561e-05
9.26267e-05
9.26533e-05
9.26341e-05
9.25673e-05
9.24512e-05
9.22839e-05
9.20639e-05
9.17895e-05
9.14594e-05
9.10721e-05
9.06268e-05
9.01223e-05
8.95582e-05
8.89338e-05
8.82491e-05
8.75042e-05
8.66993e-05
8.58351e-05
8.49127e-05
8.39341e-05
8.29029e-05
8.18226e-05
8.07492e-05
8.00276e-05
7.94912e-05
7.89694e-05
7.84301e-05
7.78649e-05
7.7272e-05
7.66519e-05
7.60062e-05
7.53367e-05
7.46457e-05
7.39353e-05
7.32075e-05
7.24642e-05
7.1707e-05
7.09371e-05
7.01554e-05
6.93622e-05
6.85573e-05
6.77399e-05
6.69088e-05
6.60618e-05
6.51952e-05
6.43071e-05
6.33914e-05
6.23591e-05
6.13175e-05
6.02174e-05
5.90171e-05
5.76767e-05
5.61544e-05
5.44039e-05
5.23988e-05
4.99723e-05
4.74316e-05
0.000198342
4.38546e-05
4.2767e-05
0.000193615
0.000186572
0.000167634
0.000141905
0.000114302
8.91189e-05
6.90275e-05
5.47261e-05
4.54443e-05
3.98259e-05
3.65962e-05
3.48221e-05
3.39037e-05
3.34784e-05
3.33311e-05
3.33339e-05
3.34101e-05
3.35136e-05
3.3617e-05
3.37048e-05
3.37693e-05
3.38077e-05
3.38206e-05
3.38124e-05
3.37865e-05
3.37268e-05
3.36329e-05
3.35079e-05
3.33558e-05
3.31806e-05
3.29863e-05
3.27768e-05
3.25558e-05
3.23263e-05
3.2091e-05
3.18518e-05
3.16099e-05
3.13659e-05
3.11201e-05
3.08729e-05
3.06247e-05
3.03758e-05
3.01272e-05
2.98795e-05
2.96333e-05
2.93887e-05
2.91453e-05
2.89023e-05
2.86607e-05
2.8421e-05
2.81805e-05
2.79368e-05
2.76888e-05
2.7436e-05
2.71778e-05
2.69135e-05
2.66271e-05
2.6284e-05
3.72501e-05
9.89848e-05
0.000150571
0.000186965
0.000213887
0.000233138
0.000245787
0.000252148
0.00024677
0.000260997
0.000260542
0.000257685
0.000254979
0.000244013
0.000246409
0.000250944
0.000253029
0.000253228
0.000251402
0.000247971
0.000243674
0.000239286
0.000235501
0.000232928
0.000231928
0.000232659
0.000235177
0.00023949
0.000245578
0.000253392
0.000262845
0.000273812
0.000286131
0.000299613
0.000314053
0.000329243
0.000344985
0.000361097
0.000377421
0.000393821
0.000410186
0.000426418
0.000442429
0.000458128
0.000473421
0.000488192
0.0005023
0.000515575
0.000527834
0.000538431
0.000548824
0.000559185
0.000569528
0.000579843
0.000590114
0.000600323
0.000610445
0.000620453
0.000630319
0.000640008
0.000649484
0.00065871
0.000667645
0.000676247
0.000684474
0.000692282
0.000699627
0.000706466
0.000712758
0.000718461
0.000723538
0.000727951
0.000731668
0.000734659
0.000736897
0.000738358
0.000739021
0.000738865
0.000737872
0.000736016
0.00073326
0.000729531
0.000724673
0.000718302
0.000709552
0.000698111
0.000685517
0.000672213
0.000658376
0.000644102
0.000629462
0.000614519
0.000599333
0.000583964
0.000568466
0.000552893
0.000537297
0.000521721
0.000506207
0.000490788
0.000475492
0.000460338
0.00044534
0.000430503
0.000415824
0.000401291
0.000386881
0.000372556
0.000358151
0.00034244
0.000322624
0.000301188
0.000278862
0.000256444
0.000234924
0.000215556
0.000199555
0.000186503
0.000177831
0.000187558
0.000182964
0.000187057
0.000215111
0.000227006
0.000224947
0.000212661
0.000194607
0.00017522
0.000157992
0.000144819
0.00013597
0.000130643
0.000127739
0.000126407
0.000126135
0.000126621
0.000127639
0.000128993
0.000130513
0.000132063
0.000133542
0.000134885
0.000136051
0.000137019
0.000137785
0.000138346
0.000138739
0.000138983
0.000139088
0.000139067
0.000138937
0.000138712
0.000138408
0.000138039
0.000137619
0.000137158
0.000136669
0.000136159
0.000135635
0.000135103
0.000134566
0.000134026
0.000133484
0.000132942
0.0001324
0.000131861
0.000131324
0.00013079
0.00013026
0.000129727
0.00012917
0.000128605
0.000128022
0.00012741
0.000126757
0.00012605
0.000125256
0.000124305
0.000122953
0.000120306
5.51031e-05
0.000136015
0.00020958
0.000268517
0.000313387
0.000345864
0.000367702
0.000380587
0.000386191
0.000385838
0.000380947
0.000374578
0.000369691
0.000367202
0.00036737
0.000368255
0.000368199
0.000366567
0.000363424
0.000359538
0.000356109
0.000354441
0.000355683
0.000360694
0.000369988
0.000383782
0.00040205
0.000424574
0.000450957
0.000480656
0.000513012
0.000547301
0.000582794
0.000618814
0.000654773
0.000690205
0.000724764
0.000758221
0.000790445
0.000821376
0.000851005
0.000879349
0.000906439
0.000932303
0.000956962
0.000980426
0.0010027
0.00102378
0.00104369
0.00106275
0.00108153
0.00110014
0.0011186
0.00113689
0.00115498
0.00117284
0.0011904
0.00120764
0.00122447
0.00124085
0.00125669
0.00127194
0.0012865
0.00130032
0.0013133
0.00132537
0.00133644
0.00134645
0.00135531
0.00136296
0.00136933
0.00137436
0.00137799
0.00138018
0.00138088
0.00138007
0.0013777
0.00137376
0.00136821
0.00136104
0.00135218
0.00134157
0.00132904
0.00131432
0.00129696
0.00127701
0.00125544
0.00123265
0.00120886
0.00118424
0.00115892
0.001133
0.00110661
0.00107984
0.00105281
0.00102562
0.000998366
0.000971127
0.000943984
0.000916999
0.000890223
0.000863691
0.000837424
0.000811427
0.000785689
0.000760178
0.00073484
0.000709576
0.000684156
0.000657861
0.000628711
0.000595907
0.000559718
0.000520317
0.000478353
0.000435277
0.000393251
0.000354364
0.000323241
0.000303948
0.000291934
0.00028765
0.000290362
0.000290573
0.000284441
0.0002715
0.000253722
0.000234502
0.000217488
0.000205445
0.000199425
0.000198606
0.000200996
0.000204627
0.000208356
0.000211855
0.000215168
0.000218383
0.000221512
0.000224502
0.000227282
0.000229786
0.000231967
0.000233802
0.000235284
0.000236419
0.000237248
0.000237814
0.000238136
0.00023824
0.000238152
0.0002379
0.00023751
0.000237005
0.000236409
0.000235743
0.000235025
0.000234271
0.000233493
0.0002327
0.0002319
0.000231096
0.000230292
0.000229488
0.000228688
0.000227892
0.000227101
0.000226316
0.000225536
0.000224755
0.000223953
0.000223129
0.00022227
0.000221362
0.000220385
0.000219317
0.000218109
0.000216664
0.00021467
0.000211372
7.34449e-05
0.000179913
0.000276415
0.000350819
0.000404663
0.000441024
0.000462785
0.00047246
0.000472695
0.000467656
0.000461
0.000455462
0.000452388
0.000451632
0.000452141
0.000452664
0.000452462
0.00045164
0.000451102
0.000452328
0.000456999
0.000466623
0.000482278
0.000504515
0.000533372
0.000568451
0.000609011
0.000654064
0.000702482
0.000753092
0.000804773
0.000856529
0.000907538
0.000957168
0.00100498
0.0010507
0.0010942
0.00113545
0.00117452
0.00121152
0.00124656
0.00127981
0.0013114
0.00134146
0.00137012
0.00139747
0.00142362
0.00144864
0.00147255
0.00149583
0.00151873
0.00154131
0.00156359
0.00158554
0.00160714
0.00162833
0.00164906
0.00166926
0.00168886
0.00170778
0.00172594
0.00174324
0.0017596
0.00177492
0.0017891
0.00180204
0.00181365
0.00182383
0.00183249
0.00183954
0.00184492
0.00184853
0.00185033
0.00185024
0.00184824
0.00184427
0.0018383
0.00183032
0.0018203
0.0018082
0.00179401
0.00177766
0.00175907
0.0017381
0.00171455
0.0016887
0.00166119
0.00163228
0.00160217
0.00157101
0.00153896
0.00150616
0.00147276
0.00143891
0.00140473
0.00137037
0.00133596
0.00130159
0.00126739
0.00123342
0.00119976
0.00116646
0.00113352
0.00110097
0.00106877
0.00103688
0.00100521
0.000973622
0.000941859
0.000909375
0.000875034
0.000837201
0.000795622
0.000749858
0.000699789
0.000645904
0.000589531
0.000532922
0.000480427
0.000436626
0.000403464
0.000381308
0.00036796
0.000357813
0.000345944
0.000329765
0.000309473
0.000287544
0.000267695
0.000253561
0.000247353
0.000248962
0.000256063
0.00026539
0.000274388
0.000281971
0.000288153
0.000293332
0.000297863
0.000301932
0.000305602
0.000308869
0.000311713
0.000314119
0.000316084
0.000317617
0.000318755
0.00031955
0.000320028
0.00032022
0.000320161
0.000319886
0.000319428
0.000318819
0.000318089
0.000317265
0.000316371
0.000315429
0.000314455
0.000313461
0.000312457
0.00031145
0.000310443
0.000309439
0.00030844
0.000307448
0.000306464
0.000305489
0.000304519
0.000303551
0.000302568
0.000301557
0.000300505
0.000299392
0.000298197
0.000296891
0.000295428
0.00029371
0.000291484
0.000288359
9.27803e-05
0.000227055
0.000343067
0.0004281
0.000485999
0.000521839
0.000540547
0.000546104
0.000543476
0.000537194
0.00053068
0.000525908
0.000523436
0.00052285
0.000523417
0.000524695
0.000526923
0.000531094
0.000538766
0.000551685
0.000571369
0.000598784
0.000634206
0.000677254
0.000727025
0.000782275
0.000841583
0.000903501
0.000966662
0.00102986
0.0010921
0.0011526
0.0012108
0.00126634
0.00131902
0.00136877
0.00141563
0.00145972
0.00150121
0.00154028
0.00157713
0.00161197
0.00164499
0.00167637
0.00170626
0.00173479
0.00176208
0.00178822
0.00181329
0.00183767
0.00186153
0.00188494
0.00190791
0.00193044
0.00195248
0.00197399
0.00199491
0.00201519
0.00203474
0.00205348
0.00207133
0.00208819
0.00210395
0.00211853
0.00213181
0.0021437
0.00215407
0.00216284
0.0021699
0.00217517
0.00217855
0.00217997
0.00217935
0.00217664
0.00217179
0.00216476
0.00215551
0.00214403
0.00213029
0.00211429
0.00209599
0.00207539
0.00205243
0.00202706
0.00199923
0.00196932
0.00193782
0.0019049
0.00187072
0.00183543
0.00179919
0.00176217
0.00172453
0.00168644
0.00164806
0.00160955
0.00157106
0.00153272
0.00149466
0.00145697
0.00141972
0.00138296
0.00134672
0.00131098
0.00127571
0.00124085
0.00120628
0.00117181
0.00113718
0.00110189
0.00106506
0.00102519
0.000981639
0.000933749
0.000881003
0.000823257
0.000761021
0.000695786
0.000630731
0.000570251
0.000518455
0.000477961
0.000448556
0.000426674
0.000407368
0.000386673
0.000363097
0.000337891
0.000314377
0.000296661
0.000288016
0.000289444
0.000299082
0.000313021
0.000327278
0.000339473
0.000349054
0.00035649
0.000362458
0.000367466
0.000371794
0.000375566
0.000378823
0.000381577
0.000383836
0.000385612
0.000386939
0.000387871
0.000388436
0.000388671
0.000388614
0.000388305
0.000387783
0.000387083
0.000386242
0.00038529
0.000384256
0.000383164
0.000382033
0.000380881
0.000379717
0.00037855
0.000377385
0.000376226
0.000375075
0.000373933
0.000372803
0.000371684
0.000370573
0.000369465
0.000368349
0.000367206
0.000366019
0.000364768
0.000363431
0.000361978
0.000360366
0.000358517
0.000356255
0.000353457
0.000112857
0.000269802
0.000402331
0.00049651
0.000558225
0.00059467
0.00061154
0.000615089
0.000610957
0.00060376
0.000596724
0.000591593
0.000588935
0.000588717
0.000590915
0.000595937
0.000604785
0.000618913
0.000639892
0.000668992
0.000706861
0.000753384
0.000807756
0.000868676
0.000934583
0.00100385
0.00107494
0.00114647
0.0012173
0.00128648
0.00135332
0.00141732
0.00147816
0.00153567
0.00158981
0.00164063
0.00168824
0.00173282
0.00177457
0.00181372
0.00185049
0.00188509
0.00191774
0.00194863
0.00197792
0.00200575
0.00203225
0.00205751
0.00208162
0.00210491
0.00212755
0.00214961
0.0021711
0.00219204
0.00221239
0.00223212
0.00225119
0.00226954
0.0022871
0.00230379
0.00231952
0.00233422
0.00234778
0.0023601
0.00237108
0.00238061
0.00238859
0.00239492
0.0023995
0.00240222
0.00240302
0.00240179
0.00239848
0.00239302
0.00238537
0.00237547
0.00236329
0.00234883
0.00233205
0.00231296
0.00229155
0.0022678
0.00224172
0.0022133
0.00218252
0.00214991
0.00211581
0.00208034
0.00204365
0.00200589
0.00196722
0.00192783
0.00188789
0.00184758
0.0018071
0.00176661
0.00172629
0.00168628
0.00164672
0.0016077
0.00156932
0.0015316
0.00149457
0.0014582
0.00142243
0.00138717
0.00135225
0.00131748
0.00128253
0.00124691
0.00120983
0.00116996
0.00112646
0.00107861
0.00102573
0.000967353
0.000903478
0.000834915
0.000763803
0.000693718
0.00062903
0.000573726
0.000529743
0.000495744
0.000467792
0.000441504
0.000414142
0.000385678
0.000358674
0.000337216
0.00032525
0.000324824
0.000334948
0.000351793
0.00037045
0.000387182
0.000400463
0.000410471
0.00041805
0.000424014
0.000428908
0.000433034
0.000436534
0.00043947
0.000441871
0.000443759
0.000445166
0.000446147
0.000446732
0.000446959
0.00044687
0.000446506
0.00044591
0.00044512
0.000444175
0.000443109
0.000441954
0.000440734
0.000439473
0.000438189
0.000436894
0.000435597
0.000434305
0.000433023
0.000431752
0.000430494
0.000429252
0.000428023
0.000426806
0.000425596
0.000424381
0.000423145
0.000421866
0.000420525
0.000419099
0.000417562
0.000415874
0.000413978
0.000411765
0.000409271
0.000132329
0.000309072
0.000455656
0.000558055
0.000623941
0.000661281
0.000678048
0.000681079
0.000676261
0.000668342
0.000660699
0.000655362
0.000653385
0.000655392
0.000662062
0.000674382
0.000693611
0.000721016
0.000757511
0.00080337
0.000858117
0.00092063
0.000989363
0.0010626
0.00113864
0.00121594
0.00129319
0.00136928
0.00144336
0.00151478
0.00158307
0.00164793
0.00170919
0.00176679
0.00182075
0.00187118
0.00191822
0.00196207
0.00200292
0.00204101
0.00207656
0.00210979
0.00214091
0.00217011
0.00219755
0.00222339
0.00224775
0.00227072
0.00229237
0.00231308
0.00233297
0.00235213
0.00237062
0.00238843
0.00240557
0.00242201
0.00243774
0.00245269
0.00246681
0.00248006
0.00249234
0.00250358
0.0025137
0.00252261
0.00253021
0.00253641
0.0025411
0.00254419
0.00254558
0.00254519
0.00254293
0.00253872
0.00253248
0.00252417
0.00251372
0.00250109
0.00248626
0.0024692
0.00244989
0.00242832
0.00240451
0.00237844
0.00235013
0.0023196
0.00228689
0.0022526
0.00221694
0.00218002
0.00214198
0.00210297
0.00206318
0.00202279
0.00198199
0.00194099
0.00189998
0.00185917
0.00181873
0.00177883
0.0017396
0.00170115
0.00166355
0.00162683
0.00159099
0.00155597
0.00152169
0.001488
0.00145472
0.00142158
0.00138822
0.00135411
0.00131848
0.00128012
0.00123809
0.00119165
0.00114006
0.00108271
0.00101933
0.000950264
0.000876924
0.000802041
0.00072954
0.000663782
0.000608072
0.00056303
0.000526253
0.000493769
0.000462238
0.000430601
0.00040054
0.000375779
0.000360519
0.00035756
0.000366818
0.000384984
0.000406819
0.000427523
0.000444469
0.000457239
0.000466614
0.000473622
0.000479073
0.000483475
0.000487102
0.000490091
0.000492509
0.000494395
0.000495782
0.000496726
0.000497261
0.000497427
0.000497264
0.000496817
0.000496129
0.00049524
0.000494189
0.000493014
0.000491745
0.000490411
0.000489036
0.000487638
0.000486231
0.000484826
0.00048343
0.000482047
0.000480681
0.000479332
0.000478002
0.00047669
0.000475394
0.000474109
0.000472825
0.000471523
0.000470184
0.000468788
0.000467314
0.000465736
0.000464022
0.000462128
0.00046
0.000457755
0.000150213
0.000343041
0.00050121
0.000610662
0.000680402
0.000720351
0.000738803
0.000742841
0.000738549
0.000730923
0.000723738
0.000719596
0.000720226
0.000726896
0.000740752
0.000762913
0.00079435
0.000835627
0.000886686
0.000946774
0.00101456
0.00108837
0.0011664
0.00124696
0.0013285
0.00140975
0.00148967
0.00156743
0.0016424
0.00171413
0.00178231
0.00184675
0.00190736
0.00196412
0.0020171
0.0020664
0.00211218
0.00215463
0.00219393
0.0022303
0.00226396
0.00229511
0.00232396
0.00235069
0.00237546
0.00239844
0.00241973
0.00243946
0.00245769
0.00247478
0.00249088
0.00250609
0.00252047
0.00253407
0.00254688
0.00255893
0.00257019
0.00258063
0.00259024
0.00259895
0.00260673
0.0026135
0.00261921
0.00262377
0.00262711
0.00262916
0.00262981
0.002629
0.00262663
0.00262262
0.0026169
0.00260939
0.00260002
0.00258874
0.00257549
0.00256023
0.00254293
0.00252355
0.00250208
0.00247851
0.00245283
0.00242505
0.00239518
0.00236324
0.00232939
0.0022942
0.00225778
0.00222024
0.00218173
0.00214241
0.00210248
0.00206212
0.00202157
0.00198103
0.00194072
0.00190086
0.00186165
0.00182325
0.0017858
0.00174941
0.00171413
0.00167997
0.00164688
0.00161479
0.00158356
0.00155298
0.00152283
0.00149277
0.0014624
0.00143113
0.0013982
0.00136243
0.00132285
0.00127873
0.00122932
0.00117394
0.00111219
0.00104415
0.000970745
0.000894051
0.000817394
0.00074496
0.000680664
0.000626511
0.000581634
0.000542958
0.000507127
0.000472436
0.000439779
0.000412351
0.000394286
0.000388804
0.000396555
0.000414894
0.000438695
0.00046253
0.000482786
0.000498297
0.00050957
0.00051771
0.000523741
0.00052838
0.000532054
0.000534995
0.000537322
0.0005391
0.000540372
0.000541197
0.000541613
0.00054166
0.000541379
0.000540815
0.000540011
0.000539007
0.000537843
0.000536556
0.000535177
0.000533736
0.000532257
0.000530758
0.000529254
0.000527757
0.000526274
0.00052481
0.000523367
0.000521947
0.000520551
0.000519177
0.000517824
0.000516486
0.000515155
0.000513811
0.000512436
0.000511013
0.000509519
0.000507932
0.000506224
0.000504367
0.000502337
0.000500292
0.000165645
0.000369695
0.000536172
0.000651935
0.000726739
0.000770733
0.000792448
0.00079912
0.00079699
0.000791339
0.000786416
0.000785443
0.000790774
0.000804134
0.000826801
0.00085963
0.000902958
0.000956492
0.00101929
0.00108991
0.00116657
0.00124747
0.00133087
0.00141526
0.00149936
0.00158215
0.0016628
0.00174069
0.00181536
0.00188647
0.0019538
0.00201722
0.00207667
0.00213217
0.00218379
0.00223162
0.0022758
0.00231651
0.00235392
0.00238822
0.00241962
0.00244831
0.00247446
0.00249827
0.00251989
0.00253948
0.00255716
0.00257305
0.00258724
0.00260006
0.00261169
0.00262223
0.00263179
0.0026404
0.00264812
0.00265497
0.00266096
0.00266608
0.00267034
0.00267371
0.00267617
0.00267767
0.00267819
0.00267766
0.00267604
0.00267327
0.00266928
0.002664
0.00265738
0.00264935
0.00263983
0.00262876
0.00261609
0.00260176
0.00258571
0.0025679
0.00254829
0.00252684
0.00250352
0.00247832
0.00245121
0.0024222
0.00239129
0.0023585
0.00232417
0.00228868
0.00225211
0.00221458
0.00217626
0.00213731
0.00209794
0.00205838
0.00201887
0.00197963
0.00194093
0.00190299
0.00186602
0.0018302
0.00179566
0.00176249
0.00173073
0.00170034
0.00167124
0.00164329
0.00161628
0.00158997
0.00156404
0.0015381
0.00151167
0.00148414
0.00145471
0.00142225
0.00138576
0.00134452
0.00129781
0.00124493
0.00118544
0.00111927
0.00104703
0.000970338
0.000891969
0.000815733
0.000745662
0.000684585
0.000632889
0.000588551
0.000548606
0.000511083
0.000476288
0.000446858
0.000426665
0.000419064
0.000425197
0.000443038
0.000467816
0.000493863
0.00051685
0.000534863
0.000547998
0.000557298
0.000563923
0.000568773
0.000572432
0.000575239
0.00057738
0.000578954
0.000580021
0.000580647
0.000580874
0.000580743
0.000580298
0.00057958
0.000578632
0.000577494
0.000576205
0.0005748
0.000573312
0.000571768
0.000570191
0.000568601
0.000567014
0.000565438
0.000563883
0.000562353
0.000560851
0.000559377
0.000557932
0.000556515
0.000555122
0.00055375
0.000552392
0.000551026
0.000549636
0.000548205
0.000546715
0.000545143
0.000543467
0.000541666
0.00053974
0.00053786
0.000175988
0.000387107
0.000560538
0.000682527
0.000762868
0.000811877
0.00083818
0.000849066
0.000850867
0.000849092
0.000848388
0.000852468
0.000864118
0.000885267
0.000917053
0.000959863
0.00101335
0.00107651
0.00114782
0.00122549
0.00130767
0.00139261
0.00147876
0.00156484
0.00164978
0.00173277
0.00181314
0.00189041
0.00196422
0.00203429
0.00210046
0.00216263
0.00222075
0.00227484
0.00232496
0.00237119
0.00241366
0.00245252
0.00248791
0.00252002
0.00254901
0.00257507
0.00259836
0.00261905
0.00263731
0.00265326
0.00266706
0.00267882
0.00268865
0.00269685
0.00270362
0.0027091
0.00271339
0.00271658
0.00271871
0.00271986
0.00272004
0.0027193
0.00271765
0.0027151
0.00271166
0.00270733
0.00270208
0.00269592
0.0026888
0.00268072
0.00267162
0.00266147
0.00265024
0.00263787
0.00262431
0.00260952
0.00259345
0.00257604
0.00255724
0.002537
0.00251527
0.002492
0.00246715
0.00244067
0.00241254
0.00238273
0.00235123
0.0023181
0.00228381
0.00224848
0.00221223
0.00217518
0.00213749
0.00209937
0.00206105
0.00202277
0.00198482
0.00194745
0.00191095
0.00187557
0.00184155
0.00180906
0.00177824
0.00174915
0.00172178
0.00169605
0.00167182
0.00164886
0.0016269
0.0016056
0.00158459
0.00156339
0.00154148
0.0015182
0.00149271
0.00146391
0.00143083
0.00139276
0.00134901
0.00129891
0.00124201
0.00117815
0.00110778
0.00103217
0.000953685
0.000875712
0.000802148
0.000736221
0.00067922
0.00063011
0.000586525
0.000546536
0.000510079
0.000479299
0.000457704
0.000448576
0.000453313
0.000470374
0.000495421
0.000522835
0.000547856
0.000567955
0.000582765
0.000593161
0.000600351
0.000605375
0.00060896
0.000611557
0.000613424
0.000614706
0.000615484
0.000615833
0.000615802
0.000615436
0.000614778
0.000613868
0.000612747
0.000611455
0.000610027
0.000608498
0.000606897
0.000605252
0.000603584
0.000601912
0.000600251
0.00059861
0.000596996
0.000595415
0.000593868
0.000592356
0.000590878
0.000589434
0.000588019
0.00058663
0.000585261
0.000583889
0.000582501
0.000581081
0.000579612
0.000578073
0.000576447
0.000574719
0.0005729
0.000571161
0.000181363
0.000396941
0.000575652
0.000703196
0.00078916
0.000843814
0.000875747
0.000892204
0.000899525
0.000903331
0.000908494
0.000919006
0.000937847
0.000966933
0.00100714
0.00105838
0.00111977
0.00118987
0.00126688
0.00134894
0.00143425
0.00152123
0.00160852
0.00169504
0.0017799
0.00186241
0.00194203
0.00201836
0.00209108
0.00215999
0.00222492
0.0022858
0.00234258
0.00239527
0.00244392
0.00248858
0.00252938
0.00256641
0.00259982
0.00262976
0.00265637
0.00267982
0.00270026
0.00271784
0.00273271
0.00274502
0.0027549
0.00276248
0.00276787
0.00277137
0.00277317
0.00277345
0.00277232
0.00276988
0.00276622
0.00276143
0.00275556
0.00274866
0.00274081
0.00273202
0.00272236
0.00271184
0.0027005
0.00268836
0.00267542
0.00266171
0.00264722
0.00263195
0.00261589
0.00259903
0.00258132
0.00256276
0.00254329
0.00252288
0.00250146
0.00247899
0.0024554
0.00243061
0.00240457
0.00237721
0.00234846
0.00231827
0.00228662
0.00225372
0.00221986
0.00218509
0.0021495
0.00211324
0.00207649
0.00203947
0.00200245
0.00196571
0.00192957
0.00189433
0.00186033
0.00182785
0.00179715
0.00176843
0.0017418
0.00171729
0.00169485
0.00167433
0.00165548
0.001638
0.00162152
0.00160561
0.00158982
0.00157361
0.00155639
0.00153747
0.00151602
0.00149095
0.00146133
0.00142649
0.00138575
0.00133852
0.00128432
0.001223
0.00115487
0.00108102
0.00100345
0.000925197
0.000849903
0.000780929
0.000720147
0.000667344
0.000620812
0.000578863
0.000541265
0.000509768
0.000487486
0.000477486
0.000481227
0.000497494
0.000522364
0.000550432
0.000576776
0.000598427
0.000614594
0.000625919
0.000633585
0.000638717
0.000642161
0.000644473
0.000645985
0.000646891
0.0006473
0.000647299
0.000646945
0.000646287
0.000645369
0.000644229
0.000642907
0.000641438
0.000639857
0.000638195
0.000636479
0.000634733
0.000632979
0.000631233
0.000629508
0.000627813
0.000626154
0.000624535
0.000622957
0.000621422
0.000619926
0.00061847
0.000617049
0.000615658
0.000614292
0.000612929
0.000611558
0.000610164
0.000608731
0.000607241
0.000605678
0.000604033
0.000602324
0.000600711
0.0001832
0.000400355
0.000582608
0.000714917
0.000806378
0.000867035
0.000905324
0.000928363
0.0009424
0.00095303
0.000965158
0.00098283
0.00100902
0.0010455
0.00109288