/*--------------------------------*- C++ -*----------------------------------*\
  =========                 |
  \\      /  F ield         | OpenFOAM: The Open Source CFD Toolbox
   \\    /   O peration     | Website:  https://openfoam.org
    \\  /    A nd           | Version:  9
     \\/     M anipulation  |
\*---------------------------------------------------------------------------*/
FoamFile
{
    format      ascii;
    class       volScalarField;
    location    "0.07";
    object      p;
}
// * * * * * * * * * * * * * * * * * * * * * * * * * * * * * * * * * * * * * //

dimensions      [0 2 -2 0 0 0 0];

internalField   nonuniform List<scalar> 
12225
(
0.854039
0.530164
0.435083
0.424028
0.419873
0.419923
0.425801
0.435413
0.447435
0.461583
0.477645
0.495253
0.513958
0.533181
0.552288
0.56984
0.585907
0.578592
0.43209
0.444044
0.431774
0.426857
0.423033
0.422896
0.428489
0.43796
0.449996
0.46426
0.480508
0.498356
0.517354
0.536934
0.556579
0.575055
0.594365
0.617148
0.404029
0.454571
0.438343
0.430051
0.426637
0.426734
0.432074
0.441323
0.453306
0.467656
0.484098
0.502254
0.521705
0.541962
0.562719
0.583031
0.606987
0.642282
0.438111
0.461229
0.439795
0.43119
0.428731
0.429348
0.434661
0.443775
0.455691
0.470054
0.486596
0.504971
0.52483
0.545799
0.567751
0.590178
0.6172
0.652073
0.444411
0.454547
0.437217
0.430642
0.429219
0.430481
0.435922
0.444951
0.456756
0.471017
0.487489
0.505874
0.525888
0.547241
0.569856
0.593454
0.621215
0.652476
0.437989
0.445404
0.433719
0.429055
0.428498
0.430397
0.43599
0.444907
0.45651
0.470518
0.486712
0.504831
0.524629
0.545839
0.568304
0.591737
0.618329
0.645414
0.431716
0.437818
0.429998
0.426665
0.426804
0.429242
0.434925
0.443646
0.454915
0.468486
0.484156
0.501684
0.520824
0.541275
0.56273
0.584766
0.608706
0.631103
0.426727
0.431218
0.425882
0.423558
0.424236
0.427061
0.432724
0.441128
0.451902
0.464822
0.47969
0.496263
0.514265
0.533322
0.552959
0.572578
0.59277
0.610096
0.421848
0.424879
0.421305
0.419792
0.420846
0.423877
0.429379
0.437318
0.44741
0.459443
0.473211
0.488451
0.504834
0.521897
0.539018
0.55544
0.5712
0.5833
0.41663
0.418594
0.416295
0.415402
0.416658
0.419707
0.424887
0.432192
0.441398
0.452297
0.464662
0.478197
0.492513
0.507063
0.521117
0.533812
0.544815
0.5517
0.41104
0.412287
0.410861
0.410396
0.411692
0.414571
0.419258
0.425753
0.433864
0.443381
0.454052
0.465542
0.477407
0.489038
0.499641
0.508308
0.514501
0.516304
0.405565
0.406377
0.405463
0.405232
0.406428
0.408992
0.413072
0.418661
0.425585
0.433625
0.442505
0.451862
0.461213
0.46992
0.477177
0.482082
0.484009
0.481346
0.399847
0.400341
0.399756
0.399613
0.400584
0.402694
0.406037
0.410587
0.41618
0.422588
0.429515
0.436573
0.443258
0.448926
0.452794
0.454013
0.451916
0.445221
0.392913
0.393161
0.392755
0.392561
0.393139
0.394578
0.396919
0.40012
0.404021
0.408382
0.412892
0.417148
0.420645
0.42276
0.422772
0.419928
0.413594
0.40282
0.38451
0.384582
0.384177
0.383749
0.38373
0.384232
0.385265
0.386766
0.388573
0.390445
0.392065
0.393038
0.392882
0.391034
0.386875
0.37978
0.369213
0.354485
0.37439
0.374323
0.373732
0.372844
0.371978
0.371243
0.370631
0.370061
0.369376
0.368341
0.366656
0.363959
0.359825
0.353786
0.345348
0.33404
0.319451
0.3011
0.362366
0.362157
0.361196
0.359586
0.357585
0.355296
0.352701
0.349715
0.346194
0.341929
0.336662
0.330087
0.321869
0.311651
0.299083
0.283842
0.265652
0.244209
0.348487
0.348101
0.346584
0.34397
0.340528
0.336373
0.331496
0.325825
0.319247
0.311601
0.302688
0.292284
0.280152
0.266055
0.249773
0.231118
0.209931
0.186052
0.333421
0.332797
0.330515
0.32659
0.321378
0.315053
0.307634
0.299091
0.28936
0.278348
0.26593
0.251972
0.236339
0.218904
0.19956
0.178227
0.154842
0.129363
0.322299
0.321494
0.318441
0.313236
0.306423
0.298255
0.28879
0.278041
0.265995
0.252607
0.237807
0.221517
0.203664
0.184183
0.163027
0.140169
0.115594
0.0893079
0.31604
0.315138
0.311394
0.305062
0.296942
0.287361
0.276399
0.264113
0.250526
0.235619
0.21935
0.201674
0.182549
0.161945
0.139842
0.11624
0.0911449
0.0645864
0.312848
0.311965
0.307475
0.299977
0.290655
0.279865
0.267691
0.254231
0.23953
0.223575
0.206336
0.187782
0.167891
0.146647
0.124049
0.100112
0.0748501
0.0483117
0.311909
0.31134
0.306014
0.297283
0.286867
0.275043
0.261885
0.247548
0.232075
0.215438
0.197602
0.178544
0.158247
0.136703
0.113918
0.0899126
0.0647093
0.0383644
0.312555
0.312784
0.306415
0.296402
0.285032
0.272298
0.258322
0.24334
0.227361
0.210312
0.192151
0.172854
0.152403
0.13079
0.108024
0.0841276
0.0591257
0.0330806
0.314855
0.316535
0.308323
0.296869
0.284684
0.271096
0.256399
0.240953
0.224669
0.207412
0.18913
0.169791
0.149367
0.127852
0.105252
0.0815894
0.0568895
0.0312201
0.318701
0.323886
0.311952
0.298391
0.285352
0.270876
0.255538
0.239769
0.223349
0.206052
0.187814
0.168587
0.148335
0.127047
0.104727
0.0813953
0.0570759
0.0318426
0.315102
0.332885
0.316827
0.300546
0.286355
0.270926
0.255076
0.23919
0.222814
0.205643
0.187615
0.168643
0.148689
0.127737
0.105791
0.0828681
0.0589903
0.0342353
0.28138
0.33001
0.318068
0.301831
0.286582
0.270269
0.254252
0.238574
0.22252
0.205696
0.188074
0.169513
0.149982
0.129467
0.107971
0.0855158
0.0621202
0.0378573
0.281806
0.311524
0.310762
0.300606
0.285415
0.268485
0.25271
0.237613
0.222123
0.2059
0.188844
0.17081
0.151786
0.131767
0.110759
0.0887892
0.0658839
0.0421154
0.695141
0.420698
0.323943
0.302425
0.285563
0.267987
0.252348
0.237644
0.222602
0.206808
0.190037
0.172317
0.153606
0.133898
0.113202
0.0915456
0.0689623
0.0455422
-0.600574
-0.569565
-0.56548
-0.597929
-0.632711
-0.659894
-0.687452
-0.71273
-0.729681
-0.740053
-0.748198
-0.755587
-0.766342
-0.776664
-0.779835
-0.785482
-0.797929
-0.814928
-0.836131
-0.861109
-0.890336
-0.924425
-0.964442
-1.01223
-1.07041
-1.14216
-1.23064
-1.33835
-1.46658
-1.61508
-1.78206
-1.96433
-2.15774
-2.35761
-2.55915
-2.75781
-2.94951
-3.13083
-3.299
-3.45187
-3.58791
-3.70605
-3.80562
-3.88621
-3.94777
-3.99069
-4.01576
-4.0233
-4.01202
-3.98016
-3.92676
-3.85369
-3.76206
-3.65273
-3.52647
-3.38401
-3.22617
-3.05382
-2.86794
-2.66961
-2.46002
-2.24048
-2.0124
-1.77728
-1.53672
-1.29239
-1.04604
-0.799458
-0.554461
-0.312881
-0.076538
0.152782
0.373346
0.583501
0.781688
0.966471
1.13655
1.29076
1.42814
1.54787
1.64932
1.73203
1.79576
1.84062
1.86744
1.8768
1.86862
1.84332
1.80185
1.74531
1.67495
1.5921
1.49818
1.39468
1.28312
1.16506
1.04208
0.915749
0.787623
0.659238
0.5321
0.40769
0.287466
0.172873
0.0653622
-0.0335555
-0.122199
-0.198781
-0.260105
-0.302683
-0.329737
-0.340773
-0.334794
-0.311986
-0.275428
-0.230693
-0.181426
-0.15107
-0.0967881
-0.0338027
0.0217014
0.10163
0.164753
0.213484
0.248925
0.272628
0.28713
0.294403
0.296193
0.293954
0.288782
0.281614
0.273261
0.264423
0.255667
0.247413
0.239936
0.233388
0.227827
0.223243
0.219581
0.216756
0.214667
0.213207
0.212271
0.211776
0.211588
0.211648
0.211883
0.212233
0.212645
0.213079
0.213502
0.21389
0.214226
0.214499
0.214704
0.214837
0.214901
0.214899
0.214835
0.214716
0.214546
0.214333
0.214084
0.213804
0.213503
0.213186
0.212862
0.212538
0.212219
0.211915
0.211638
0.211398
0.211213
0.211106
0.211131
0.211337
0.212094
0.212967
-0.628054
-0.619233
-0.626877
-0.651376
-0.67965
-0.706069
-0.728185
-0.743901
-0.759188
-0.771553
-0.772259
-0.764466
-0.755566
-0.747914
-0.743411
-0.742041
-0.744307
-0.750283
-0.761405
-0.777973
-0.800689
-0.830458
-0.868371
-0.916662
-0.978804
-1.05881
-1.16035
-1.28574
-1.43532
-1.60724
-1.79783
-2.00213
-2.21459
-2.42968
-2.64236
-2.84833
-3.04411
-3.22699
-3.39498
-3.54668
-3.68108
-3.79752
-3.89553
-3.97476
-4.03494
-4.07578
-4.09693
-4.09825
-4.08027
-4.0445
-3.99271
-3.92385
-3.83773
-3.73459
-3.61489
-3.47923
-3.32831
-3.16295
-2.98407
-2.79271
-2.59002
-2.37725
-2.15576
-1.927
-1.69254
-1.45398
-1.21303
-0.97143
-0.730947
-0.493371
-0.260482
-0.0340298
0.184286
0.392838
0.590093
0.77463
0.945161
1.10055
1.23981
1.36215
1.46694
1.55379
1.62255
1.67313
1.70474
1.7175
1.71283
1.69171
1.655
1.60371
1.53899
1.46212
1.37443
1.27734
1.17233
1.0609
0.94456
0.824849
0.703282
0.581358
0.460555
0.34233
0.228117
0.119343
0.0174282
-0.0761785
-0.160041
-0.232813
-0.293739
-0.341719
-0.371767
-0.38343
-0.376132
-0.349762
-0.305612
-0.247176
-0.177383
-0.088057
-0.0181114
0.0445282
0.114312
0.154356
0.194011
0.226712
0.252568
0.271989
0.285481
0.293655
0.297015
0.296186
0.291956
0.285196
0.276835
0.267729
0.258576
0.249882
0.241971
0.235022
0.229101
0.224202
0.220269
0.217212
0.214929
0.21331
0.212242
0.211609
0.211343
0.21134
0.21153
0.211848
0.21224
0.212665
0.213087
0.213481
0.213828
0.214115
0.214336
0.214487
0.21457
0.214586
0.21454
0.214439
0.214288
0.214093
0.213861
0.213599
0.213314
0.213013
0.212703
0.212392
0.212095
0.211816
0.21156
0.211344
0.211186
0.211109
0.211172
0.211398
0.212171
0.21276
-0.656313
-0.657305
-0.666855
-0.687799
-0.712398
-0.734964
-0.752808
-0.764814
-0.770958
-0.771382
-0.765056
-0.754205
-0.741248
-0.727884
-0.715512
-0.706972
-0.702778
-0.704059
-0.712357
-0.729717
-0.758941
-0.803239
-0.865467
-0.947515
-1.05023
-1.17346
-1.31609
-1.47608
-1.65065
-1.83649
-2.03006
-2.22784
-2.42646
-2.62289
-2.81445
-2.99879
-3.17393
-3.3382
-3.49018
-3.62871
-3.75281
-3.8617
-3.95474
-4.0314
-4.09127
-4.13397
-4.15892
-4.1656
-4.15438
-4.12536
-4.07917
-4.01589
-3.93567
-3.83879
-3.72565
-3.59678
-3.45281
-3.29449
-3.12271
-2.93844
-2.74277
-2.53692
-2.32219
-2.09999
-1.87183
-1.63928
-1.40399
-1.16766
-0.932026
-0.698832
-0.469826
-0.246726
-0.0312069
0.175128
0.370762
0.554289
0.72443
0.880053
1.02019
1.14403
1.25099
1.34065
1.41286
1.46755
1.50442
1.5236
1.52593
1.51218
1.48309
1.43962
1.38285
1.31399
1.23435
1.14531
1.04829
0.944769
0.836229
0.724166
0.610073
0.495424
0.381676
0.270264
0.162606
0.0601017
-0.0358557
-0.123879
-0.202627
-0.270813
-0.327208
-0.370277
-0.397772
-0.409087
-0.403521
-0.380882
-0.341388
-0.286069
-0.216258
-0.131553
-0.0547348
0.0214387
0.0951383
0.153158
0.200247
0.235566
0.261933
0.280755
0.293319
0.300621
0.303207
0.301649
0.296703
0.289264
0.280275
0.270602
0.260946
0.251811
0.243516
0.236232
0.230023
0.224876
0.220729
0.217491
0.215054
0.213305
0.212132
0.211422
0.211087
0.211034
0.211187
0.211481
0.21186
0.212279
0.212703
0.213103
0.213461
0.213762
0.213999
0.214167
0.214267
0.214301
0.214273
0.214189
0.214055
0.213877
0.213662
0.213416
0.213147
0.212862
0.212568
0.212274
0.211991
0.211721
0.21148
0.211281
0.211142
0.211084
0.211162
0.211366
0.212079
0.21219
-0.652742
-0.668422
-0.683107
-0.701369
-0.720955
-0.738361
-0.751448
-0.759157
-0.760959
-0.757005
-0.748208
-0.736373
-0.723656
-0.712057
-0.703282
-0.699585
-0.703049
-0.716087
-0.741483
-0.78212
-0.840455
-0.917996
-1.01497
-1.13037
-1.26228
-1.40832
-1.56604
-1.73309
-1.9073
-2.08664
-2.26914
-2.45289
-2.63598
-2.81652
-2.99267
-3.16269
-3.32494
-3.47791
-3.62025
-3.75076
-3.86839
-3.9722
-4.0614
-4.13533
-4.19342
-4.23523
-4.26034
-4.2685
-4.25967
-4.23396
-4.19139
-4.13201
-4.05594
-3.96343
-3.85483
-3.7306
-3.59133
-3.43771
-3.27058
-3.09086
-2.89961
-2.69799
-2.48727
-2.26884
-2.04416
-1.81479
-1.58234
-1.34849
-1.11497
-0.883498
-0.655815
-0.433632
-0.218616
-0.0123684
0.183594
0.367862
0.539152
0.696324
0.838396
0.964554
1.07417
1.1668
1.24219
1.30025
1.34099
1.36469
1.37187
1.36316
1.33931
1.30124
1.25001
1.18683
1.11294
1.02972
0.938565
0.840912
0.738229
0.631984
0.523641
0.414649
0.306437
0.200412
0.0979632
0.000460357
-0.0907427
-0.17431
-0.248938
-0.31336
-0.366428
-0.406924
-0.433365
-0.444684
-0.440307
-0.420044
-0.384047
-0.332984
-0.268251
-0.191959
-0.111729
-0.0268124
0.0575772
0.131558
0.190518
0.234457
0.26558
0.286412
0.299435
0.306423
0.308398
0.306136
0.300468
0.292337
0.282722
0.272513
0.262418
0.252929
0.244351
0.236839
0.230444
0.225143
0.220868
0.217523
0.214998
0.213176
0.211944
0.211191
0.210821
0.210743
0.210879
0.211161
0.211535
0.211954
0.212381
0.212788
0.213155
0.213467
0.213716
0.213897
0.21401
0.214057
0.214042
0.213971
0.213849
0.213683
0.21348
0.213246
0.212989
0.212714
0.212431
0.212147
0.21187
0.211609
0.211376
0.211183
0.211047
0.210984
0.211041
0.211177
0.211734
0.211412
-0.58489
-0.617369
-0.639658
-0.660259
-0.679761
-0.696283
-0.708418
-0.715577
-0.717809
-0.715856
-0.711099
-0.705416
-0.700947
-0.699903
-0.704588
-0.717544
-0.741445
-0.778998
-0.832586
-0.903765
-0.992901
-1.09913
-1.22068
-1.35529
-1.50069
-1.65483
-1.81593
-1.98243
-2.15291
-2.32602
-2.50038
-2.6746
-2.84725
-3.01688
-3.18209
-3.34147
-3.49369
-3.63747
-3.77163
-3.89506
-4.00674
-4.10576
-4.19129
-4.26258
-4.31902
-4.36003
-4.38516
-4.39407
-4.38659
-4.3626
-4.32203
-4.26489
-4.19127
-4.10135
-3.99544
-3.87396
-3.73743
-3.58652
-3.422
-3.24477
-3.05584
-2.85635
-2.64755
-2.43078
-2.20751
-1.97926
-1.74766
-1.51437
-1.2811
-1.0496
-0.82159
-0.598794
-0.382885
-0.175473
0.0219161
0.207864
0.381077
0.540403
0.684846
0.813576
0.925941
1.02147
1.09986
1.16097
1.20485
1.23183
1.24242
1.23725
1.21708
1.18284
1.1356
1.07651
1.00685
0.92794
0.841176
0.747979
0.649791
0.548058
0.444216
0.339684
0.235861
0.134121
0.0358168
-0.0577178
-0.14517
-0.225249
-0.296698
-0.358305
-0.408961
-0.447579
-0.472985
-0.484281
-0.480902
-0.462604
-0.429461
-0.381951
-0.321091
-0.248184
-0.166342
-0.0779278
0.011567
0.0944109
0.164714
0.219375
0.258708
0.284947
0.300961
0.309252
0.311551
0.309098
0.302986
0.294316
0.284175
0.273514
0.263064
0.253313
0.244548
0.236903
0.230413
0.225043
0.220717
0.217334
0.214779
0.212936
0.211688
0.210924
0.210547
0.210465
0.2106
0.210884
0.211261
0.211684
0.212116
0.21253
0.212904
0.213224
0.213482
0.213671
0.213793
0.213849
0.213843
0.21378
0.213667
0.213509
0.213314
0.213088
0.212837
0.21257
0.212292
0.212013
0.21174
0.211482
0.211249
0.211052
0.210905
0.210819
0.210829
0.210873
0.211249
0.210587
-0.460478
-0.507219
-0.543599
-0.571782
-0.595133
-0.614162
-0.628707
-0.639019
-0.646006
-0.651114
-0.656206
-0.663419
-0.675026
-0.693359
-0.720797
-0.759706
-0.812213
-0.879919
-0.963593
-1.06301
-1.17702
-1.30385
-1.44146
-1.58783
-1.74117
-1.89992
-2.06276
-2.22852
-2.39614
-2.56459
-2.73285
-2.89989
-3.06464
-3.22601
-3.38287
-3.53409
-3.67856
-3.81515
-3.9428
-4.06048
-4.1672
-4.26206
-4.34422
-4.41292
-4.46746
-4.50725
-4.53177
-4.5406
-4.53346
-4.51013
-4.47049
-4.41446
-4.3421
-4.25355
-4.14905
-4.02899
-3.89384
-3.74423
-3.5809
-3.4047
-3.21664
-3.0178
-2.80944
-2.59288
-2.36957
-2.14104
-1.90892
-1.67486
-1.44061
-1.20789
-0.978462
-0.754059
-0.536369
-0.327019
-0.127549
0.0606067
0.236141
0.39789
0.544842
0.676159
0.791173
0.889398
0.970522
1.03439
1.08107
1.1109
1.12441
1.12223
1.10515
1.07409
1.03013
0.974427
0.908243
0.832905
0.749793
0.660317
0.565903
0.467977
0.367949
0.267209
0.167122
0.0690276
-0.0257587
-0.115942
-0.200249
-0.277432
-0.346278
-0.405622
-0.454385
-0.491539
-0.516094
-0.527295
-0.524604
-0.507773
-0.476829
-0.432087
-0.3742
-0.304052
-0.223568
-0.135359
-0.043636
0.0455923
0.125684
0.191553
0.241284
0.275622
0.29701
0.308347
0.312091
0.31013
0.304002
0.295083
0.284621
0.273662
0.262981
0.253076
0.244219
0.23653
0.230024
0.224656
0.220341
0.216974
0.214437
0.212611
0.211379
0.210632
0.210269
0.2102
0.210346
0.210639
0.211024
0.211455
0.211894
0.212315
0.212695
0.213021
0.213284
0.213479
0.213607
0.213668
0.213668
0.21361
0.213502
0.213349
0.213158
0.212937
0.21269
0.212427
0.212152
0.211875
0.211602
0.211341
0.211102
0.210893
0.210726
0.210605
0.210554
0.210497
0.2107
0.209775
-0.300732
-0.363511
-0.415444
-0.453251
-0.482739
-0.506908
-0.526873
-0.543918
-0.559796
-0.576633
-0.596765
-0.622562
-0.656289
-0.700021
-0.755563
-0.824318
-0.907104
-1.00402
-1.11442
-1.23705
-1.37026
-1.51228
-1.6614
-1.81607
-1.97495
-2.13691
-2.30095
-2.46622
-2.63192
-2.79727
-2.96148
-3.12376
-3.28324
-3.43901
-3.59014
-3.73566
-3.87457
-4.0059
-4.12865
-4.24187
-4.34463
-4.43605
-4.51531
-4.58162
-4.6343
-4.6727
-4.69626
-4.70453
-4.69717
-4.67387
-4.63446
-4.57881
-4.50692
-4.41889
-4.31493
-4.19537
-4.06065
-3.91135
-3.74819
-3.57199
-3.38372
-3.18447
-2.97547
-2.75803
-2.53361
-2.30375
-2.07006
-1.83424
-1.59802
-1.36318
-1.13149
-0.904701
-0.684528
-0.47262
-0.27054
-0.07974
0.0984565
0.26287
0.412482
0.546442
0.664078
0.764902
0.848601
0.915034
0.964299
0.996748
1.0129
1.01341
0.99906
0.970799
0.929697
0.876934
0.813771
0.741538
0.661612
0.575396
0.484304
0.389743
0.293097
0.195728
0.098966
0.00411228
-0.0875552
-0.174781
-0.256329
-0.33099
-0.397589
-0.455
-0.502171
-0.538128
-0.561983
-0.573051
-0.570826
-0.555051
-0.525715
-0.483044
-0.427537
-0.359951
-0.281633
-0.194516
-0.101771
-0.00843699
0.0790966
0.154854
0.215039
0.258614
0.286992
0.30293
0.30934
0.308741
0.303204
0.294468
0.283999
0.272973
0.26223
0.252299
0.243454
0.235804
0.229353
0.224047
0.219795
0.216488
0.214005
0.212227
0.211038
0.210326
0.209993
0.209948
0.210114
0.210424
0.210821
0.211261
0.211708
0.212134
0.212519
0.212849
0.213115
0.213313
0.213444
0.213508
0.21351
0.213455
0.213349
0.213198
0.21301
0.21279
0.212546
0.212283
0.212009
0.21173
0.211453
0.211186
0.210936
0.21071
0.210515
0.210351
0.210232
0.210075
0.210118
0.208994
-0.137504
-0.213792
-0.280294
-0.327983
-0.36479
-0.395955
-0.423829
-0.45053
-0.478534
-0.510515
-0.549105
-0.596666
-0.655122
-0.725858
-0.809662
-0.906697
-1.01651
-1.1381
-1.27009
-1.4109
-1.55892
-1.71266
-1.87077
-2.0321
-2.1957
-2.36073
-2.52649
-2.69231
-2.85758
-3.02166
-3.1839
-3.34362
-3.50006
-3.65246
-3.79999
-3.94179
-4.07698
-4.20466
-4.32394
-4.43392
-4.53372
-4.62251
-4.69946
-4.76383
-4.8149
-4.85202
-4.87462
-4.88219
-4.87435
-4.85077
-4.81121
-4.7555
-4.6836
-4.59557
-4.49157
-4.3719
-4.23696
-4.0873
-3.92359
-3.74665
-3.55742
-3.35698
-3.14654
-2.92743
-2.70109
-2.46909
-2.23304
-1.99468
-1.75576
-1.51808
-1.28344
-1.05364
-0.830407
-0.615429
-0.410292
-0.216468
-0.0353004
0.132019
0.284462
0.421174
0.541483
0.644903
0.731127
0.800041
0.851774
0.886698
0.905322
0.9083
0.896446
0.870717
0.832202
0.782089
0.721652
0.652227
0.575191
0.491944
0.403891
0.312418
0.218888
0.124629
0.0309359
-0.0609285
-0.149726
-0.234238
-0.313267
-0.385635
-0.4502
-0.505867
-0.55161
-0.586494
-0.60968
-0.620524
-0.618537
-0.603453
-0.575224
-0.534022
-0.480254
-0.414566
-0.337956
-0.251922
-0.159
-0.0633258
0.0293951
0.11298
0.182435
0.235157
0.271266
0.292906
0.303069
0.304724
0.300452
0.292395
0.282287
0.271463
0.260858
0.251045
0.242321
0.234793
0.228464
0.223273
0.219127
0.215914
0.213515
0.211809
0.21068
0.21002
0.209728
0.209717
0.209908
0.210237
0.210649
0.2111
0.211554
0.211984
0.212372
0.212703
0.21297
0.213168
0.213298
0.213363
0.213364
0.213309
0.213204
0.213054
0.212865
0.212646
0.212401
0.212137
0.211861
0.211578
0.211295
0.211018
0.210753
0.210505
0.210277
0.210065
0.209877
0.209621
0.20952
0.20825
0.00265176
-0.0833971
-0.161378
-0.217835
-0.262283
-0.301557
-0.338876
-0.376987
-0.418853
-0.467428
-0.525361
-0.594733
-0.676873
-0.772306
-0.880801
-1.0015
-1.13312
-1.2741
-1.42281
-1.57769
-1.73734
-1.90051
-2.06618
-2.2335
-2.40173
-2.57027
-2.73856
-2.90605
-3.07223
-3.23655
-3.39843
-3.55727
-3.71241
-3.86315
-4.00876
-4.14845
-4.28143
-4.40686
-4.52393
-4.63179
-4.72961
-4.81658
-4.89192
-4.95487
-5.00475
-5.04089
-5.0627
-5.06967
-5.06135
-5.03741
-4.99756
-4.94161
-4.86946
-4.78115
-4.67679
-4.55665
-4.42109
-4.27064
-4.10594
-3.92778
-3.73709
-3.53494
-3.32252
-3.10118
-2.87236
-2.63764
-2.39867
-2.1572
-1.91502
-1.67397
-1.43589
-1.20259
-0.975868
-0.757429
-0.548889
-0.351748
-0.167364
0.00305659
0.158479
0.298048
0.421095
0.527143
0.615894
0.687269
0.741432
0.778756
0.799753
0.805092
0.795607
0.772276
0.736202
0.68859
0.630725
0.563953
0.489655
0.40923
0.324072
0.23555
0.145001
0.0537211
-0.0370334
-0.126039
-0.212096
-0.294025
-0.37066
-0.440853
-0.503489
-0.557493
-0.601864
-0.635685
-0.658147
-0.668625
-0.666636
-0.651903
-0.624348
-0.584095
-0.53148
-0.467052
-0.391635
-0.306497
-0.213734
-0.116754
-0.0205372
0.0689418
0.146095
0.20715
0.250972
0.278849
0.293524
0.298177
0.295792
0.288899
0.27952
0.269177
0.258915
0.249374
0.240881
0.233558
0.227411
0.222382
0.218378
0.215289
0.212996
0.211379
0.210325
0.209726
0.209483
0.20951
0.209731
0.210082
0.210509
0.21097
0.211429
0.211862
0.21225
0.21258
0.212844
0.213041
0.213168
0.21323
0.213229
0.213172
0.213064
0.212912
0.212723
0.212501
0.212254
0.211987
0.211707
0.211419
0.211127
0.210838
0.210555
0.210281
0.210018
0.209756
0.209496
0.209149
0.208918
0.207547
0.102372
0.00975968
-0.0753706
-0.138397
-0.189807
-0.237188
-0.284239
-0.334049
-0.389759
-0.454307
-0.530107
-0.61879
-0.721053
-0.836676
-0.964689
-1.10362
-1.25176
-1.40735
-1.56875
-1.73452
-1.90341
-2.07442
-2.24672
-2.41962
-2.59253
-2.76494
-2.93638
-3.10639
-3.27448
-3.44016
-3.60292
-3.76219
-3.91738
-4.06782
-4.21286
-4.35177
-4.4838
-4.60819
-4.72415
-4.8309
-4.92765
-5.01361
-5.08803
-5.15018
-5.19935
-5.23492
-5.25626
-5.26283
-5.25422
-5.23002
-5.18993
-5.13373
-5.0613
-4.97262
-4.86779
-4.74703
-4.61068
-4.45924
-4.29332
-4.11369
-3.92126
-3.71709
-3.50238
-3.27848
-3.04683
-2.80904
-2.56679
-2.32185
-2.07606
-1.83128
-1.58941
-1.35232
-1.12181
-0.899653
-0.687483
-0.486829
-0.299069
-0.125418
0.0330819
0.17558
0.301415
0.410116
0.501409
0.575257
0.631851
0.671558
0.694902
0.702573
0.695426
0.674459
0.640792
0.595647
0.540321
0.47617
0.40458
0.326948
0.244658
0.159062
0.0714682
-0.0168608
-0.104707
-0.190889
-0.274245
-0.35363
-0.42791
-0.495962
-0.556688
-0.609033
-0.652007
-0.684706
-0.706333
-0.716272
-0.714041
-0.699347
-0.672086
-0.632343
-0.5804
-0.516739
-0.44209
-0.357576
-0.264998
-0.167254
-0.0686939
0.0251035
0.108373
0.176585
0.227561
0.26169
0.281252
0.289413
0.289412
0.284104
0.27579
0.266186
0.256466
0.247343
0.239188
0.232148
0.226241
0.221416
0.217586
0.214643
0.212473
0.210959
0.209988
0.209457
0.209268
0.209336
0.209588
0.20996
0.210402
0.21087
0.211333
0.211766
0.212151
0.212477
0.212737
0.212928
0.21305
0.213106
0.213101
0.21304
0.212929
0.212773
0.21258
0.212356
0.212105
0.211834
0.211548
0.211252
0.21095
0.210647
0.210344
0.210043
0.209741
0.209429
0.209101
0.208669
0.208321
0.206885
0.153751
0.0581895
-0.0294269
-0.0962594
-0.153137
-0.207623
-0.263502
-0.323919
-0.391934
-0.470242
-0.560882
-0.665014
-0.782816
-0.913573
-1.05591
-1.20806
-1.36817
-1.53447
-1.70538
-1.87956
-2.0559
-2.23353
-2.4117
-2.58982
-2.76736
-2.94386
-3.11888
-3.29197
-3.4627
-3.63059
-3.79515
-3.95585
-4.11211
-4.26334
-4.40888
-4.54807
-4.6802
-4.80454
-4.92036
-5.02689
-5.12339
-5.20909
-5.28327
-5.34521
-5.39422
-5.42965
-5.45091
-5.45743
-5.44878
-5.42455
-5.3844
-5.32809
-5.25547
-5.1665
-5.06125
-4.93989
-4.80276
-4.6503
-4.48312
-4.30196
-4.10772
-3.90144
-3.68434
-3.45774
-3.22313
-2.98212
-2.73643
-2.48785
-2.23827
-1.98961
-1.7438
-1.50275
-1.26832
-1.04232
-0.826416
-0.622165
-0.430963
-0.254035
-0.0924233
0.0530249
0.181657
0.293017
0.38687
0.463213
0.522252
0.564356
0.590068
0.6001
0.595329
0.576771
0.545564
0.502942
0.450217
0.388752
0.319937
0.245165
0.16581
0.0832025
-0.00137699
-0.0867029
-0.171597
-0.254918
-0.335543
-0.412359
-0.484259
-0.550139
-0.608917
-0.659549
-0.701051
-0.732526
-0.753178
-0.762394
-0.759686
-0.744748
-0.717453
-0.677854
-0.626192
-0.562903
-0.48866
-0.404492
-0.312016
-0.213786
-0.113661
-0.0167802
0.0711695
0.145247
0.202501
0.2425
0.266969
0.278888
0.281601
0.278201
0.271229
0.26259
0.253586
0.245014
0.237297
0.230611
0.224996
0.220412
0.216781
0.214003
0.211968
0.210565
0.209685
0.209224
0.209091
0.209201
0.209482
0.209874
0.210328
0.210802
0.211265
0.211695
0.212074
0.212393
0.212645
0.212828
0.212942
0.212991
0.212979
0.212912
0.212796
0.212635
0.212438
0.212208
0.211953
0.211676
0.211384
0.211079
0.210765
0.210446
0.210122
0.209792
0.209452
0.20909
0.208697
0.208189
0.207736
0.206263
0.158299
0.064161
-0.0217877
-0.0896932
-0.150077
-0.209942
-0.272876
-0.341868
-0.41972
-0.508771
-0.610655
-0.726129
-0.855026
-0.996367
-1.14861
-1.30992
-1.47844
-1.65245
-1.83044
-2.01116
-2.19356
-2.37681
-2.56022
-2.7432
-2.92525
-3.10591
-3.28474
-3.4613
-3.63515
-3.80584
-3.97287
-4.13572
-4.29385
-4.44666
-4.59355
-4.73386
-4.86693
-4.99205
-5.10851
-5.21558
-5.31254
-5.39866
-5.47322
-5.53551
-5.58486
-5.62064
-5.64223
-5.64907
-5.64071
-5.61673
-5.57678
-5.52059
-5.448
-5.35892
-5.25341
-5.13161
-4.99383
-4.84049
-4.67216
-4.48958
-4.29363
-4.08534
-3.86591
-3.63669
-3.39917
-3.15498
-2.90587
-2.65368
-2.40033
-2.14779
-1.89804
-1.65304
-1.41471
-1.18488
-0.965263
-0.757444
-0.562835
-0.382668
-0.217986
-0.0696289
0.0617604
0.175757
0.272169
0.351017
0.412511
0.457037
0.48516
0.497616
0.495301
0.479248
0.450609
0.41063
0.360634
0.301987
0.236082
0.164305
0.0880155
0.00852165
-0.0729279
-0.155145
-0.236993
-0.317369
-0.395187
-0.469364
-0.538815
-0.602454
-0.659208
-0.708037
-0.747964
-0.778091
-0.797617
-0.80593
-0.802532
-0.787106
-0.7595
-0.719743
-0.668046
-0.604814
-0.530686
-0.446635
-0.354167
-0.255612
-0.154462
-0.0554557
0.0359359
0.114616
0.177118
0.22234
0.251445
0.267129
0.272712
0.271426
0.266
0.258503
0.250361
0.242453
0.235259
0.228991
0.223712
0.219401
0.215991
0.213392
0.211502
0.210216
0.209428
0.209039
0.20896
0.20911
0.209418
0.209827
0.210289
0.210765
0.211225
0.211648
0.212018
0.212327
0.212567
0.212739
0.212843
0.212883
0.212862
0.212787
0.212664
0.212497
0.212294
0.212059
0.211798
0.211515
0.211214
0.210899
0.210573
0.210237
0.209891
0.209532
0.209155
0.208744
0.208291
0.207714
0.207169
0.20568
0.12547
0.0364318
-0.0444292
-0.110878
-0.172651
-0.235848
-0.303677
-0.378845
-0.46381
-0.560529
-0.67027
-0.793486
-0.929804
-1.07814
-1.23694
-1.4044
-1.57874
-1.75828
-1.9416
-2.12745
-2.31484
-2.50293
-2.69103
-2.87853
-3.06491
-3.2497
-3.43244
-3.61268
-3.78997
-3.96384
-4.13379
-4.29932
-4.45988
-4.61488
-4.76374
-4.90583
-5.04048
-5.16702
-5.28476
-5.39299
-5.49101
-5.57811
-5.65358
-5.71673
-5.7669
-5.80345
-5.82577
-5.83331
-5.82558
-5.80217
-5.76272
-5.70694
-5.63464
-5.54571
-5.44019
-5.3182
-5.18001
-5.02603
-4.8568
-4.67304
-4.4756
-4.26553
-4.04401
-3.81239
-3.57218
-3.32502
-3.0727
-2.81709
-2.56015
-2.30391
-2.05038
-1.8016
-1.55952
-1.32601
-1.10284
-0.891593
-0.693712
-0.510435
-0.342803
-0.191649
-0.0575905
0.0589895
0.157926
0.239251
0.303192
0.350157
0.380735
0.395684
0.395917
0.382483
0.356543
0.319355
0.272243
0.216579
0.153751
0.0851352
0.0120727
-0.0641546
-0.142332
-0.221311
-0.299996
-0.377322
-0.452237
-0.523685
-0.590599
-0.651906
-0.70654
-0.753465
-0.791704
-0.820355
-0.838612
-0.845859
-0.841588
-0.825467
-0.797327
-0.757175
-0.705201
-0.641791
-0.567565
-0.483471
-0.39095
-0.29219
-0.190423
-0.0900449
0.00373936
0.0858513
0.152527
0.202164
0.235425
0.254673
0.263117
0.264036
0.260282
0.254054
0.246884
0.239731
0.233128
0.22733
0.222425
0.218412
0.21524
0.212831
0.211092
0.209924
0.209228
0.20891
0.208883
0.209068
0.2094
0.209822
0.210288
0.210761
0.211213
0.211626
0.211983
0.212277
0.212504
0.212662
0.212753
0.21278
0.212749
0.212665
0.212533
0.212359
0.212149
0.211907
0.211639
0.211349
0.21104
0.210715
0.210376
0.210023
0.209654
0.209267
0.208853
0.208397
0.207888
0.207251
0.206623
0.205135
0.0687214
-0.0123543
-0.0855508
-0.14844
-0.209658
-0.274227
-0.344876
-0.423971
-0.513606
-0.615379
-0.730248
-0.858449
-0.999496
-1.15229
-1.31533
-1.4869
-1.66528
-1.84888
-2.03629
-2.22631
-2.41791
-2.61024
-2.80257
-2.99428
-3.18482
-3.37366
-3.56032
-3.74434
-3.92523
-4.10252
-4.27569
-4.44423
-4.6076
-4.76522
-4.91649
-5.06081
-5.19752
-5.32597
-5.44547
-5.55535
-5.6549
-5.74343
-5.82025
-5.88468
-5.93606
-5.97376
-5.99718
-6.00575
-5.99899
-5.97647
-5.93782
-5.88274
-5.81102
-5.72255
-5.61731
-5.49543
-5.35714
-5.20284
-5.03304
-4.84843
-4.64987
-4.43837
-4.21512
-3.98146
-3.73892
-3.48917
-3.23399
-2.97531
-2.71513
-2.45552
-2.19855
-1.94629
-1.70075
-1.46385
-1.23738
-1.02296
-0.822048
-0.635881
-0.465498
-0.311717
-0.175117
-0.0560577
0.0453147
0.129053
0.195405
0.244803
0.277862
0.295359
0.298221
0.28751
0.264395
0.230137
0.186065
0.133547
0.0739618
0.00867313
-0.0610019
-0.133811
-0.208577
-0.284192
-0.359599
-0.43377
-0.505686
-0.574311
-0.638595
-0.697476
-0.749893
-0.794813
-0.831257
-0.858317
-0.87518
-0.881226
-0.875935
-0.85896
-0.830116
-0.789393
-0.736969
-0.673219
-0.59876
-0.514533
-0.42195
-0.323114
-0.221075
-0.119952
-0.024673
0.0598074
0.129602
0.182771
0.219566
0.242024
0.25318
0.256288
0.254257
0.249373
0.24325
0.236917
0.230959
0.225669
0.221167
0.217471
0.21455
0.212338
0.210752
0.209703
0.209097
0.208846
0.208865
0.209082
0.209432
0.20986
0.210325
0.21079
0.21123
0.211627
0.211967
0.212243
0.212452
0.212594
0.212669
0.212683
0.212639
0.212544
0.212403
0.21222
0.212002
0.211754
0.211478
0.21118
0.210863
0.210527
0.210174
0.209804
0.209414
0.208999
0.20855
0.208052
0.207492
0.206801
0.206101
0.204624
0.00311365
-0.0678321
-0.131574
-0.189338
-0.248466
-0.312836
-0.384664
-0.465952
-0.558437
-0.663396
-0.781529
-0.912908
-1.05698
-1.21268
-1.37857
-1.55301
-1.73439
-1.92115
-2.1119
-2.30544
-2.50074
-2.69689
-2.89314
-3.08882
-3.28333
-3.47612
-3.66667
-3.85447
-4.03903
-4.21985
-4.3964
-4.56815
-4.73457
-4.89506
-5.04905
-5.19591
-5.33501
-5.4657
-5.58731
-5.69917
-5.80059
-5.8909
-5.9694
-6.03543
-6.08834
-6.1275
-6.15231
-6.1622
-6.15669
-6.13535
-6.09779
-6.0437
-5.97286
-5.88514
-5.78051
-5.65907
-5.52104
-5.36678
-5.19679
-5.01175
-4.81249
-4.60001
-4.37549
-4.14027
-3.89589
-3.64402
-3.38648
-3.12521
-2.86227
-2.59976
-2.3398
-2.08451
-1.83594
-1.59606
-1.36667
-1.14944
-0.945812
-0.75706
-0.584197
-0.428011
-0.289064
-0.167694
-0.0640265
0.0220136
0.0906995
0.14249
0.17802
0.198083
0.203621
0.195702
0.175504
0.144287
0.103377
0.054135
-0.00207084
-0.0638975
-0.130054
-0.199324
-0.270566
-0.342715
-0.414752
-0.485684
-0.554518
-0.620238
-0.68181
-0.73818
-0.788292
-0.831117
-0.865672
-0.891046
-0.906414
-0.911157
-0.904736
-0.886793
-0.857128
-0.81572
-0.76274
-0.698561
-0.623808
-0.539432
-0.44684
-0.348092
-0.246111
-0.144797
-0.0488152
0.0370706
0.108979
0.164777
0.204409
0.229615
0.243231
0.248424
0.2481
0.244587
0.239554
0.234082
0.228803
0.22405
0.219969
0.216605
0.213941
0.211929
0.210497
0.209564
0.209043
0.208853
0.208913
0.209154
0.209515
0.209944
0.210401
0.210853
0.211276
0.211652
0.211971
0.212225
0.212413
0.212535