/*--------------------------------*- C++ -*----------------------------------*\
  =========                 |
  \\      /  F ield         | OpenFOAM: The Open Source CFD Toolbox
   \\    /   O peration     | Website:  https://openfoam.org
    \\  /    A nd           | Version:  9
     \\/     M anipulation  |
\*---------------------------------------------------------------------------*/
FoamFile
{
    format      ascii;
    class       surfaceScalarField;
    location    "0.07";
    object      phi;
}
// * * * * * * * * * * * * * * * * * * * * * * * * * * * * * * * * * * * * * //

dimensions      [0 3 -1 0 0 0 0];

internalField   nonuniform List<scalar> 
24170
(
3.05487e-07
1.33535e-08
2.65306e-07
4.01814e-08
2.33917e-07
3.13891e-08
2.08483e-07
2.54337e-08
1.88395e-07
2.00882e-08
1.72562e-07
1.58326e-08
1.58935e-07
1.36275e-08
1.46127e-07
1.28072e-08
1.33482e-07
1.26449e-08
1.20732e-07
1.27503e-08
1.07801e-07
1.29311e-08
9.47597e-08
1.30413e-08
8.18556e-08
1.29042e-08
6.95969e-08
1.22586e-08
5.89855e-08
1.06115e-08
5.29202e-08
6.06531e-09
6.00128e-08
-7.09262e-09
3.24293e-08
2.75835e-08
3.45776e-07
9.30198e-09
3.36652e-07
4.9306e-08
3.20906e-07
4.71348e-08
3.04367e-07
4.19726e-08
2.883e-07
3.61552e-08
2.73068e-07
3.10654e-08
2.58536e-07
2.81594e-08
2.4422e-07
2.71231e-08
2.29649e-07
2.72154e-08
2.14472e-07
2.79276e-08
1.98462e-07
2.89414e-08
1.81524e-07
2.9979e-08
1.63714e-07
3.07142e-08
1.45302e-07
3.06707e-08
1.26801e-07
2.91128e-08
1.09904e-07
2.29622e-08
9.10145e-08
1.17965e-08
6.84291e-08
5.50147e-08
3.64662e-07
1.08918e-08
3.65934e-07
4.80334e-08
3.59835e-07
5.32338e-08
3.50253e-07
5.15549e-08
3.38567e-07
4.78413e-08
3.25759e-07
4.38737e-08
3.12423e-07
4.14954e-08
2.98629e-07
4.09165e-08
2.84191e-07
4.16532e-08
2.68856e-07
4.32629e-08
2.52388e-07
4.54093e-08
2.34602e-07
4.77651e-08
2.15367e-07
4.99492e-08
1.94606e-07
5.14315e-08
1.72283e-07
5.14357e-08
1.47986e-07
4.72594e-08
1.17292e-07
4.24905e-08
1.00492e-07
8.5229e-08
3.91616e-07
1.18146e-08
3.94015e-07
4.56349e-08
3.91705e-07
5.55438e-08
3.858e-07
5.74592e-08
3.77169e-07
5.64723e-08
3.66584e-07
5.44594e-08
3.54701e-07
5.33776e-08
3.41808e-07
5.38101e-08
3.27902e-07
5.55595e-08
3.12839e-07
5.83255e-08
2.96421e-07
6.18268e-08
2.78428e-07
6.57588e-08
2.5861e-07
6.9767e-08
2.36661e-07
7.33805e-08
2.12165e-07
7.59313e-08
1.83854e-07
7.55705e-08
1.48872e-07
7.74731e-08
1.31025e-07
1.18339e-07
4.20582e-07
1.19457e-08
4.22934e-07
4.32825e-08
4.22323e-07
5.61544e-08
4.18589e-07
6.11932e-08
4.12118e-07
6.29433e-08
4.03375e-07
6.3203e-08
3.92895e-07
6.38577e-08
3.81008e-07
6.56968e-08
3.67807e-07
6.87608e-08
3.53227e-07
7.29054e-08
3.37112e-07
7.79414e-08
3.19238e-07
8.36333e-08
2.99299e-07
8.97059e-08
2.76875e-07
9.5804e-08
2.51382e-07
1.01425e-07
2.21451e-07
1.05501e-07
1.85555e-07
1.1337e-07
1.61065e-07
1.55515e-07
4.51031e-07
1.18239e-08
4.53247e-07
4.10656e-08
4.53504e-07
5.58983e-08
4.51135e-07
6.35615e-08
4.46212e-07
6.78664e-08
4.38952e-07
7.0463e-08
4.29738e-07
7.30721e-08
4.18865e-07
7.65692e-08
4.06458e-07
8.11683e-08
3.92499e-07
8.68643e-08
3.76871e-07
9.35699e-08
3.59363e-07
1.0114e-07
3.39668e-07
1.09401e-07
3.17351e-07
1.18122e-07
2.91816e-07
1.26959e-07
2.61902e-07
1.35415e-07
2.27017e-07
1.48254e-07
1.90397e-07
1.97686e-07
4.83413e-07
1.16826e-08
4.8544e-07
3.90387e-08
4.86116e-07
5.52227e-08
4.84609e-07
6.5068e-08
4.80795e-07
7.16805e-08
4.74716e-07
7.65418e-08
4.66614e-07
8.11742e-08
4.56722e-07
8.64617e-08
4.45157e-07
9.2733e-08
4.31928e-07
1.00094e-07
4.16947e-07
1.08551e-07
4.00037e-07
1.1805e-07
3.80924e-07
1.28514e-07
3.59229e-07
1.39816e-07
3.3445e-07
1.51739e-07
3.05739e-07
1.64126e-07
2.73162e-07
1.80831e-07
2.18325e-07
2.45234e-07
5.18076e-07
1.15643e-08
5.19839e-07
3.72763e-08
5.20662e-07
5.43998e-08
5.19685e-07
6.60449e-08
5.16664e-07
7.47012e-08
5.11525e-07
8.16811e-08
5.04393e-07
8.83056e-08
4.95434e-07
9.54212e-08
4.84744e-07
1.03423e-07
4.72341e-07
1.12496e-07
4.58167e-07
1.22725e-07
4.42086e-07
1.34131e-07
4.23888e-07
1.46712e-07
4.03291e-07
1.60414e-07
3.79938e-07
1.75092e-07
3.53318e-07
1.90746e-07
3.23911e-07
2.10237e-07
2.44045e-07
2.98191e-07
5.55232e-07
1.14663e-08
5.56686e-07
3.58224e-08
5.57493e-07
5.35925e-08
5.56827e-07
6.6711e-08
5.54377e-07
7.71515e-08
5.49993e-07
8.60647e-08
5.43716e-07
9.45824e-08
5.35649e-07
1.03488e-07
5.25865e-07
1.13207e-07
5.14387e-07
1.23974e-07
5.01184e-07
1.35928e-07
4.8617e-07
1.49145e-07
4.69215e-07
1.63667e-07
4.50153e-07
1.79475e-07
4.28793e-07
1.96453e-07
4.04917e-07
2.14622e-07
3.79223e-07
2.35932e-07
2.66816e-07
3.56452e-07
5.95058e-07
1.13861e-08
5.96203e-07
3.46775e-08
5.96906e-07
5.28895e-08
5.96412e-07
6.72048e-08
5.94381e-07
7.91819e-08
5.90624e-07
8.98222e-08
5.85119e-07
1.00087e-07
5.77922e-07
1.10686e-07
5.69085e-07
1.22043e-07
5.58638e-07
1.34422e-07
5.46578e-07
1.47988e-07
5.32877e-07
1.62847e-07
5.17487e-07
1.79057e-07
5.00361e-07
1.96601e-07
4.81459e-07
2.15354e-07
4.60797e-07
2.35284e-07
4.3914e-07
2.57589e-07
2.8606e-07
4.19896e-07
6.37748e-07
1.13195e-08
6.38611e-07
3.38139e-08
6.39177e-07
5.23237e-08
6.3878e-07
6.76017e-08
6.3708e-07
8.08818e-08
6.33871e-07
9.30315e-08
6.29094e-07
1.04865e-07
6.2277e-07
1.17009e-07
6.14942e-07
1.29872e-07
6.05647e-07
1.43717e-07
5.94915e-07
1.5872e-07
5.82773e-07
1.74989e-07
5.69256e-07
1.92574e-07
5.54423e-07
2.11434e-07
5.38361e-07
2.31416e-07
5.21244e-07
2.52402e-07
5.03812e-07
2.75021e-07
3.01386e-07
4.88486e-07
5.74139e-07
1.12644e-08
5.74685e-07
3.32675e-08
5.75069e-07
5.19395e-08
5.74795e-07
6.78763e-08
5.73587e-07
8.20891e-08
5.71278e-07
9.53409e-08
5.67802e-07
1.08341e-07
5.63162e-07
1.21648e-07
5.57392e-07
1.35642e-07
5.50534e-07
1.50575e-07
5.42639e-07
1.66614e-07
5.33773e-07
1.83855e-07
5.2402e-07
2.02327e-07
5.13496e-07
2.21959e-07
5.02348e-07
2.42563e-07
4.90803e-07
2.63947e-07
4.7943e-07
2.86393e-07
3.11074e-07
4.69742e-07
6.99873e-07
1.12073e-08
7.00366e-07
3.2774e-08
7.00729e-07
5.15768e-08
7.00499e-07
6.81064e-08
6.99392e-07
8.31961e-08
6.97223e-07
9.75098e-08
6.93914e-07
1.1165e-07
6.89463e-07
1.26099e-07
6.83909e-07
1.41197e-07
6.77316e-07
1.57168e-07
6.69773e-07
1.74157e-07
6.61394e-07
1.92234e-07
6.52331e-07
2.11391e-07
6.4277e-07
2.31519e-07
6.32939e-07
2.52394e-07
6.23134e-07
2.73752e-07
6.13935e-07
2.95592e-07
3.18418e-07
6.06591e-07
8.53164e-07
1.11278e-08
8.53637e-07
3.23008e-08
8.54045e-07
5.11695e-08
8.53971e-07
6.818e-08
8.53142e-07
8.40253e-08
8.51372e-07
9.92793e-08
8.48581e-07
1.14441e-07
8.44767e-07
1.29913e-07
8.39986e-07
1.45977e-07
8.34334e-07
1.62821e-07
8.27943e-07
1.80548e-07
8.20989e-07
1.99188e-07
8.13688e-07
2.18691e-07
8.063e-07
2.38907e-07
7.99114e-07
2.59579e-07
7.9247e-07
2.80396e-07
7.86897e-07
3.01166e-07
3.21962e-07
7.83352e-07
1.04007e-06
1.09835e-08
1.04063e-06
3.17348e-08
1.04127e-06
5.05327e-08
1.04161e-06
6.7835e-08
1.04141e-06
8.42243e-08
1.04051e-06
1.00189e-07
1.03881e-06
1.16133e-07
1.03635e-06
1.32372e-07
1.03321e-06
1.49125e-07
1.0295e-06
1.66523e-07
1.02543e-06
1.84619e-07
1.02122e-06
2.03398e-07
1.01715e-06
2.22762e-07
1.01353e-06
2.42532e-07
1.01067e-06
2.62434e-07
1.00893e-06
2.82143e-07
1.00872e-06
3.01371e-07
3.19964e-07
1.01072e-06
1.26797e-06
1.06941e-08
1.26888e-06
3.08236e-08
1.27014e-06
4.92769e-08
1.27142e-06
6.65485e-08
1.27251e-06
8.31341e-08
1.27327e-06
9.94361e-08
1.27363e-06
1.15767e-07
1.27365e-06
1.32356e-07
1.27342e-06
1.49349e-07
1.27313e-06
1.66814e-07
1.273e-06
1.8475e-07
1.27331e-06
2.03094e-07
1.27435e-06
2.21715e-07
1.27647e-06
2.40417e-07
1.27996e-06
2.58938e-07
1.28514e-06
2.7697e-07
1.29229e-06
2.94215e-07
3.10439e-07
1.30182e-06
1.5459e-06
1.01136e-08
1.54761e-06
2.91127e-08
1.55019e-06
4.66984e-08
1.55334e-06
6.33953e-08
1.55685e-06
7.96242e-08
1.56059e-06
9.56963e-08
1.56453e-06
1.11831e-07
1.56871e-06
1.2817e-07
1.57328e-06
1.44781e-07
1.57843e-06
1.61669e-07
1.58439e-06
1.78782e-07
1.59147e-06
1.9602e-07
1.59995e-06
2.13235e-07
1.61013e-06
2.30234e-07
1.62228e-06
2.46788e-07
1.63661e-06
2.62639e-07
1.65329e-06
2.77534e-07
2.91253e-07
1.67248e-06
1.88488e-06
8.99264e-09
1.88813e-06
2.58682e-08
1.89317e-06
4.16611e-08
1.89966e-06
5.69031e-08
1.90735e-06
7.19353e-08
1.91608e-06
8.69653e-08
1.9258e-06
1.02111e-07
1.93655e-06
1.17421e-07
1.94844e-06
1.32886e-07
1.96166e-06
1.48447e-07
1.97644e-06
1.64012e-07
1.993e-06
1.79457e-07
2.0116e-06
1.94632e-07
2.03247e-06
2.09368e-07
2.05577e-06
2.23481e-07
2.08164e-06
2.36778e-07
2.11009e-06
2.49076e-07
2.60218e-07
2.14113e-06
2.2984e-06
6.9258e-09
2.30429e-06
1.9975e-08
2.31348e-06
3.24713e-08
2.32545e-06
4.49332e-08
2.3398e-06
5.75906e-08
2.35625e-06
7.05156e-08
2.37466e-06
8.37013e-08
2.39499e-06
9.70868e-08
2.4173e-06
1.10574e-07
2.4417e-06
1.24047e-07
2.46834e-06
1.37376e-07
2.49737e-06
1.50425e-07
2.52895e-06
1.63057e-07
2.56318e-06
1.75132e-07
2.60015e-06
1.86517e-07
2.63984e-06
1.97085e-07
2.68219e-06
2.06722e-07
2.15346e-07
2.72707e-06
1.68307e-06
4.92562e-09
1.68876e-06
1.42831e-08
1.6976e-06
2.36352e-08
1.70902e-06
3.35165e-08
1.72258e-06
4.40235e-08
1.73801e-06
5.50877e-08
1.75512e-06
6.65873e-08
1.77385e-06
7.83652e-08
1.79417e-06
9.02534e-08
1.81612e-06
1.02091e-07
1.83977e-06
1.13731e-07
1.86516e-06
1.25033e-07
1.89234e-06
1.35872e-07
1.92134e-06
1.46132e-07
1.95215e-06
1.55711e-07
1.98472e-06
1.64517e-07
2.01896e-06
1.72478e-07
1.79547e-07
2.05476e-06
1.46549e-06
2.89187e-09
1.47141e-06
8.36299e-09
1.48054e-06
1.45075e-08
1.49216e-06
2.18964e-08
1.50578e-06
3.0405e-08
1.52107e-06
3.97915e-08
1.53785e-06
4.98068e-08
1.55603e-06
6.01864e-08
1.57559e-06
7.06911e-08
1.59656e-06
8.11246e-08
1.61897e-06
9.13255e-08
1.64284e-06
1.01159e-07
1.6682e-06
1.10512e-07
1.69504e-06
1.1929e-07
1.72334e-06
1.27415e-07
1.75303e-06
1.34824e-07
1.78404e-06
1.41471e-07
1.47333e-07
1.81625e-06
1.27592e-06
9.87927e-10
1.28182e-06
2.46427e-09
1.29083e-06
5.49468e-09
1.30207e-06
1.06576e-08
1.31501e-06
1.74595e-08
1.32934e-06
2.54664e-08
1.34486e-06
3.4288e-08
1.36151e-06
4.35356e-08
1.3793e-06
5.28993e-08
1.39827e-06
6.21569e-08
1.41845e-06
7.11446e-08
1.43987e-06
7.97374e-08
1.46254e-06
8.78402e-08
1.48645e-06
9.53802e-08
1.51156e-06
1.02302e-07
1.53782e-06
1.08566e-07
1.56515e-06
1.14146e-07
1.19037e-07
1.59344e-06
1.11068e-06
-5.98816e-10
1.1164e-06
-3.25505e-09
1.12503e-06
-3.14086e-09
1.13552e-06
1.73888e-10
1.14735e-06
5.63206e-09
1.1602e-06
1.26165e-08
1.17391e-06
2.05706e-08
1.18849e-06
2.89565e-08
1.20399e-06
3.74011e-08
1.22047e-06
4.56733e-08
1.238e-06
5.36198e-08
1.2566e-06
6.1136e-08
1.27629e-06
6.81513e-08
1.29705e-06
7.46177e-08
1.31885e-06
8.05031e-08
1.34163e-06
8.57874e-08
1.36531e-06
9.04621e-08
9.45341e-08
1.38982e-06
9.66619e-07
-1.69638e-09
9.72082e-07
-8.71792e-09
9.80167e-07
-1.12262e-08
9.89648e-07
-9.30638e-09
1.00006e-06
-4.77964e-09
1.01109e-06
1.58252e-09
1.02266e-06
9.00218e-09
1.03485e-06
1.67659e-08
1.04779e-06
2.44614e-08
1.06159e-06
3.18758e-08
1.07632e-06
3.8885e-08
1.09204e-06
4.5419e-08
1.10875e-06
5.14403e-08
1.12644e-06
5.69293e-08
1.14507e-06
6.18776e-08
1.16457e-06
6.6284e-08
1.18488e-06
7.01549e-08
7.35053e-08
1.20591e-06
8.40954e-07
-2.11469e-09
8.46212e-07
-1.39761e-08
8.53607e-07
-1.86217e-08
8.61848e-07
-1.75471e-08
8.70547e-07
-1.34787e-08
8.79439e-07
-7.30968e-09
8.88568e-07
-1.26105e-10
8.98154e-07
7.17928e-09
9.08408e-07
1.42076e-08
9.1948e-07
2.0804e-08
9.31466e-07
2.68985e-08
9.44413e-07
3.24726e-08
9.58322e-07
3.75307e-08
9.73168e-07
4.20837e-08
9.889e-07
4.61455e-08
1.00545e-06
4.97314e-08
1.02275e-06
5.28596e-08
5.55501e-08
1.0407e-06
7.30963e-07
-1.34885e-09
7.36378e-07
-1.93916e-08
7.4293e-07
-2.51737e-08
7.49579e-07
-2.41958e-08
7.56131e-07
-2.00311e-08
7.62469e-07
-1.36471e-08
7.68861e-07
-6.51851e-09
7.75683e-07
3.57402e-10
7.83222e-07
6.66813e-09
7.91649e-07
1.23776e-08
8.01056e-07
1.74917e-08
8.11466e-07
2.20624e-08
8.22858e-07
2.61386e-08
8.35183e-07
2.97585e-08
8.48375e-07
3.2954e-08
8.62355e-07
3.57512e-08
8.77039e-07
3.81757e-08
4.02491e-08
8.9234e-07
6.3401e-07
1.64778e-09
6.40312e-07
-2.56939e-08
6.45627e-07
-3.04881e-08
6.50044e-07
-2.86127e-08
6.53757e-07
-2.37451e-08
6.56992e-07
-1.68816e-08
6.60335e-07
-9.86103e-09
6.64303e-07
-3.61083e-09
6.69204e-07
1.76655e-09
6.7518e-07
6.40227e-09
6.82282e-07
1.03897e-08
6.90477e-07
1.38673e-08
6.99699e-07
1.69162e-08
7.09867e-07
1.95908e-08
7.2089e-07
2.19305e-08
7.32678e-07
2.39632e-08
7.45139e-07
2.5715e-08
2.7208e-08
7.5818e-07
5.4945e-07
6.74441e-09
5.56543e-07
-3.27873e-08
5.58873e-07
-3.28175e-08
5.5955e-07
-2.92904e-08
5.59226e-07
-2.34207e-08
5.58618e-07
-1.62736e-08
5.58615e-07
-9.8582e-09
5.59741e-07
-4.73683e-09
5.62209e-07
-7.01618e-10
5.66035e-07
2.57643e-09
5.71184e-07
5.24069e-09
5.77523e-07
7.52827e-09
5.84927e-07
9.51187e-09
5.93278e-07
1.12407e-08
6.02463e-07
1.27455e-08
6.1238e-07
1.40459e-08
6.22936e-07
1.51587e-08
1.61038e-08
6.3404e-07
4.86699e-07
2.80617e-09
4.85031e-07
-3.1119e-08
4.78314e-07
-2.61007e-08
4.70763e-07
-2.174e-08
4.63887e-07
-1.6544e-08
4.58377e-07
-1.07635e-08
4.54828e-07
-6.30976e-09
4.53326e-07
-3.2349e-09
4.53687e-07
-1.06238e-09
4.5574e-07
5.23088e-10
4.59278e-07
1.7027e-09
4.64046e-07
2.7607e-09
4.69865e-07
3.69297e-09
4.76592e-07
4.51306e-09
4.84109e-07
5.22852e-09
4.92309e-07
5.8465e-09
5.01099e-07
6.36822e-09
6.80091e-09
5.10402e-07
4.23074e-07
3.91955e-07
3.65854e-07
3.44114e-07
3.2757e-07
3.16807e-07
3.10497e-07
3.07262e-07
3.062e-07
3.06723e-07
3.08425e-07
3.11186e-07
3.14879e-07
3.19392e-07
3.24621e-07
3.30467e-07
3.36835e-07
3.43636e-07
6.54168e-08
-6.54168e-08
1.51537e-07
-8.61204e-08
2.41014e-07
-8.94769e-08
3.2898e-07
-8.79658e-08
4.07736e-07
-7.87562e-08
4.73337e-07
-6.56013e-08
5.22518e-07
-4.91808e-08
5.49892e-07
-2.73741e-08
5.59429e-07
-9.5369e-09
5.55958e-07
3.47136e-09
5.37992e-07
1.79655e-08
5.0724e-07
3.07528e-08
4.67659e-07
3.95811e-08
4.25397e-07
4.22618e-08
3.85321e-07
4.00762e-08
3.43517e-07
4.18036e-08
2.97437e-07
4.60798e-08
2.45994e-07
5.14433e-08
1.87685e-07
5.83085e-08
1.19628e-07
6.80578e-08
3.83556e-08
8.1272e-08
-5.9763e-08
9.81186e-08
-1.77938e-07
1.18175e-07
-3.17628e-07
1.3969e-07
-4.78131e-07
1.60502e-07
-6.56924e-07
1.78793e-07
-8.50128e-07
1.93204e-07
-1.05311e-06
2.02987e-07
-1.26105e-06
2.07933e-07
-1.46931e-06
2.08258e-07
-1.67378e-06
2.04472e-07
-1.87104e-06
1.97261e-07
-2.05842e-06
1.87381e-07
-2.234e-06
1.75577e-07
-2.39652e-06
1.6252e-07
-2.54529e-06
1.48778e-07
-2.6801e-06
1.3481e-07
-2.80106e-06
1.20955e-07
-2.9085e-06
1.07441e-07
-3.00291e-06
9.44075e-08
-3.08483e-06
8.19175e-08
-3.15481e-06
6.99802e-08
-3.21337e-06
5.85684e-08
-3.26101e-06
4.76336e-08
-3.29812e-06
3.71134e-08
-3.32506e-06
2.69421e-08
-3.34215e-06
1.70866e-08
-3.34975e-06
7.60248e-09
-3.34845e-06
-1.30059e-09
-3.33976e-06
-8.68775e-09
-3.3243e-06
-1.54671e-08
-3.30247e-06
-2.1824e-08
-3.27452e-06
-2.79483e-08
-3.24058e-06
-3.39436e-08
-3.20072e-06
-3.98585e-08
-3.15501e-06
-4.57149e-08
-3.10349e-06
-5.15201e-08
-3.04621e-06
-5.72737e-08
-2.98324e-06
-6.29693e-08
-2.91465e-06
-6.85975e-08
-2.8405e-06
-7.41459e-08
-2.7609e-06
-7.95998e-08
-2.67596e-06
-8.4943e-08
-2.5858e-06
-9.01577e-08
-2.49057e-06
-9.52251e-08
-2.39045e-06
-1.00126e-07
-2.28561e-06
-1.04839e-07
-2.17626e-06
-1.09346e-07
-2.06264e-06
-1.13625e-07
-1.94498e-06
-1.17657e-07
-1.82356e-06
-1.21423e-07
-1.69865e-06
-1.24906e-07
-1.57056e-06
-1.28089e-07
-1.43961e-06
-1.30957e-07
-1.30611e-06
-1.33497e-07
-1.17041e-06
-1.35699e-07
-1.03286e-06
-1.37552e-07
-8.93809e-07
-1.3905e-07
-7.53622e-07
-1.40187e-07
-6.12669e-07
-1.40953e-07
-4.71332e-07
-1.41337e-07
-3.30023e-07
-1.41309e-07
-1.89243e-07
-1.4078e-07
-4.98308e-08
-1.39412e-07
8.81304e-08
-1.37961e-07
2.24785e-07
-1.36655e-07
3.5951e-07
-1.34724e-07
4.91846e-07
-1.32336e-07
6.21445e-07
-1.296e-07
7.47988e-07
-1.26542e-07
8.7117e-07
-1.23182e-07
9.90703e-07
-1.19533e-07
1.10631e-06
-1.15607e-07
1.21773e-06
-1.11417e-07
1.3247e-06
-1.06979e-07
1.42701e-06
-1.02305e-07
1.52442e-06
-9.74101e-08
1.61672e-06
-9.23026e-08
1.70371e-06
-8.69888e-08
1.78518e-06
-8.14689e-08
1.86092e-06
-7.5737e-08
1.9307e-06
-6.97787e-08
1.99427e-06
-6.35688e-08
2.05134e-06
-5.70705e-08
2.10157e-06
-5.02326e-08
2.14449e-06
-4.29229e-08
2.17943e-06
-3.49417e-08
2.20554e-06
-2.61062e-08
2.22034e-06
-1.48003e-08
2.21864e-06
1.70305e-09
2.19495e-06
2.36898e-08
2.14716e-06
4.7788e-08
2.07289e-06
7.42699e-08
1.97025e-06
1.02634e-07
1.83909e-06
1.31167e-07
1.68377e-06
1.55313e-07
1.51721e-06
1.66561e-07
1.33952e-06
1.77698e-07
1.16917e-06
1.7035e-07
1.0279e-06
1.41261e-07
9.09851e-07
1.18053e-07
8.1422e-07
9.5631e-08
7.31165e-07
8.30551e-08
6.58407e-07
7.27583e-08
5.94165e-07
6.42424e-08
5.38087e-07
5.60773e-08
4.8944e-07
4.86479e-08
4.47157e-07
4.22828e-08
4.10036e-07
3.71203e-08
3.76871e-07
3.31649e-08
3.46727e-07
3.01442e-08
3.19116e-07
2.76117e-08
2.93926e-07
2.51893e-08
2.71255e-07
2.26708e-08
2.51228e-07
2.00279e-08
2.33892e-07
1.73354e-08
2.19199e-07
1.46929e-08
2.07015e-07
1.21842e-08
1.97149e-07
9.866e-09
1.89378e-07
7.77067e-09
1.83466e-07
5.91231e-09
1.79174e-07
4.2924e-09
1.76269e-07
2.90472e-09
1.7453e-07
1.73854e-09
1.73759e-07
7.71156e-10
1.7379e-07
-3.08023e-11
1.74457e-07
-6.66695e-10
1.75641e-07
-1.18424e-09
1.77216e-07
-1.57456e-09
1.79067e-07
-1.85181e-09
1.81099e-07
-2.03147e-09
1.83228e-07
-2.12895e-09
1.85387e-07
-2.15907e-09
1.87523e-07
-2.13582e-09
1.89595e-07
-2.07202e-09
1.91574e-07
-1.97902e-09
1.9344e-07
-1.86628e-09
1.95181e-07
-1.74119e-09
1.9679e-07
-1.60886e-09
1.98262e-07
-1.47228e-09
1.99595e-07
-1.33281e-09
2.00786e-07
-1.19102e-09
2.01834e-07
-1.04747e-09
2.02737e-07
-9.03164e-10
2.03496e-07
-7.5949e-10
2.04114e-07
-6.17758e-10
2.04593e-07
-4.78542e-10
2.04933e-07
-3.40906e-10
2.05136e-07
-2.02131e-10
2.05195e-07
-5.92952e-11
2.05072e-07
1.22853e-10
2.04753e-07
3.18622e-10
2.0421e-07
5.43233e-10
2.03388e-07
8.21733e-10
2.02209e-07
1.17952e-09
2.00542e-07
1.66721e-09
1.98152e-07
2.38984e-09
1.94545e-07
3.60711e-09
1.88496e-07
6.04912e-09
1.28186e-08
1.75677e-07
9.60985e-08
-1.61515e-07
1.92091e-07
-1.82113e-07
2.67009e-07
-1.64395e-07
3.20992e-07
-1.41949e-07
3.58187e-07
-1.15951e-07
3.80348e-07
-8.77629e-08
3.89411e-07
-5.82438e-08
3.90371e-07
-2.83338e-08
3.80246e-07
5.88202e-10
3.56866e-07
2.68512e-08
3.23299e-07
5.15328e-08
2.80944e-07
7.3107e-08
2.29338e-07
9.1187e-08
1.65853e-07
1.05747e-07
8.63723e-08
1.19557e-07
-6.20585e-09
1.34382e-07
-1.1216e-07
1.52033e-07
-2.34178e-07
1.73462e-07
-3.75214e-07
1.99344e-07
-5.36702e-07
2.29546e-07
-7.18301e-07
2.62872e-07
-9.17348e-07
2.97166e-07
-1.12895e-06
3.29772e-07
-1.34732e-06
3.58063e-07
-1.56664e-06
3.79822e-07
-1.78143e-06
3.9358e-07
-1.987e-06
3.98775e-07
-2.17969e-06
3.95676e-07
-2.35694e-06
3.85186e-07
-2.5173e-06
3.68616e-07
-2.66028e-06
3.47451e-07
-2.78619e-06
3.2317e-07
-2.89591e-06
2.97106e-07
-2.9907e-06
2.70367e-07
-3.07199e-06
2.43809e-07
-3.14125e-06
2.18034e-07
-3.19986e-06
1.93427e-07
-3.2491e-06
1.70189e-07
-3.29004e-06
1.4839e-07
-3.32364e-06
1.27999e-07
-3.35065e-06
1.08929e-07
-3.37173e-06
9.10574e-08
-3.38741e-06
7.42519e-08
-3.39816e-06
5.83826e-08
-3.40438e-06
4.33345e-08
-3.40645e-06
2.90172e-08
-3.40474e-06
1.53726e-08
-3.39955e-06
2.41453e-09
-3.3907e-06
-1.01539e-08
-3.37706e-06
-2.23285e-08
-3.35813e-06
-3.43953e-08
-3.33362e-06
-4.63307e-08
-3.30343e-06
-5.81455e-08
-3.26751e-06
-6.98605e-08
-3.22588e-06
-8.14907e-08
-3.17855e-06
-9.30421e-08
-3.12556e-06
-1.04512e-07
-3.06694e-06
-1.15891e-07
-3.00275e-06
-1.27161e-07
-2.93304e-06
-1.38303e-07
-2.8579e-06
-1.49289e-07
-2.77741e-06
-1.6009e-07
-2.69168e-06
-1.70673e-07
-2.60084e-06
-1.81002e-07
-2.50502e-06
-1.9104e-07
-2.4044e-06
-2.00748e-07
-2.29915e-06
-2.10085e-07
-2.18949e-06
-2.19011e-07
-2.07563e-06
-2.27486e-07
-1.95781e-06
-2.3547e-07
-1.83631e-06
-2.42926e-07
-1.7114e-06
-2.49816e-07
-1.58338e-06
-2.56109e-07
-1.45256e-06
-2.61774e-07
-1.31928e-06
-2.66783e-07
-1.18386e-06
-2.71113e-07
-1.04667e-06
-2.74745e-07
-9.0806e-07
-2.7766e-07
-7.68401e-07
-2.79846e-07
-6.28064e-07
-2.8129e-07
-4.87426e-07
-2.81976e-07
-3.46856e-07
-2.81879e-07
-2.06687e-07
-2.8095e-07
-6.69782e-08
-2.7912e-07
7.16487e-08
-2.76588e-07
2.08449e-07
-2.73455e-07
3.4329e-07
-2.69566e-07
4.75903e-07
-2.64949e-07
6.05966e-07
-2.59663e-07
7.33164e-07
-2.5374e-07
8.57188e-07
-2.47206e-07
9.77741e-07
-2.40086e-07
1.09454e-06
-2.32408e-07
1.20733e-06
-2.24202e-07
1.31585e-06
-2.15497e-07
1.41986e-06
-2.06322e-07
1.51916e-06
-1.96703e-07
1.61351e-06
-1.8666e-07
1.70273e-06
-1.76204e-07
1.7866e-06
-1.65337e-07
1.86491e-06
-1.54048e-07
1.93744e-06
-1.42311e-07
2.00395e-06
-1.3008e-07
2.06417e-06
-1.17291e-07
2.11779e-06
-1.03848e-07
2.16446e-06
-8.9596e-08
2.20386e-06
-7.43388e-08
2.23563e-06
-5.78798e-08
2.26067e-06
-3.98409e-08
2.28133e-06
-1.8955e-08
2.29871e-06
6.30795e-09
2.30983e-06
3.6667e-08
2.31129e-06
7.28103e-08
2.29865e-06
1.15277e-07
2.26612e-06
1.63702e-07
2.20637e-06
2.15056e-07
2.10869e-06
2.6424e-07
1.97438e-06
3.12009e-07
1.80751e-06
3.37219e-07
1.61241e-06
3.36367e-07
1.41457e-06
3.15892e-07
1.22829e-06
2.81906e-07
1.06618e-06
2.45168e-07
9.30309e-07
2.08629e-07
8.1921e-07
1.75341e-07
7.29092e-07
1.46196e-07
6.56015e-07
1.21725e-07
5.95976e-07
1.02321e-07
5.45167e-07
8.79299e-08
5.00522e-07
7.78099e-08
4.60073e-07
7.05931e-08
4.22937e-07
6.47473e-08
3.89014e-07
5.91121e-08
3.58549e-07
5.31358e-08
3.31787e-07
4.67904e-08
3.08803e-07
4.03195e-08
2.89483e-07
3.40127e-08
2.73576e-07
2.80914e-08
2.60755e-07
2.26867e-08
2.50668e-07
1.78572e-08
2.42967e-07
1.36139e-08
2.3732e-07
9.93949e-09
2.33423e-07
6.80116e-09
2.31005e-07
4.15702e-09
2.29819e-07
1.95665e-09
2.29641e-07
1.47929e-10
2.30274e-07
-1.29975e-09
2.31525e-07
-2.43611e-09
2.33245e-07
-3.29435e-09
2.35303e-07
-3.90985e-09
2.37589e-07
-4.31698e-09
2.40008e-07
-4.54843e-09
2.42484e-07
-4.63511e-09
2.44954e-07
-4.6059e-09
2.4737e-07
-4.48723e-09
2.49693e-07
-4.30258e-09
2.51899e-07
-4.07193e-09
2.53969e-07
-3.81128e-09
2.55892e-07
-3.5324e-09
2.57663e-07
-3.24303e-09
2.59278e-07
-2.9476e-09
2.60735e-07
-2.64847e-09
2.62035e-07
-2.34722e-09
2.63178e-07
-2.04556e-09
2.64164e-07
-1.74552e-09
2.64995e-07
-1.44894e-09
2.65673e-07
-1.15656e-09
2.66199e-07
-8.66849e-10
2.66572e-07
-5.7513e-10
2.66782e-07
-2.70021e-10
2.66835e-07
7.00182e-11
2.66707e-07
4.46871e-10
2.66361e-07
8.8957e-10
2.65752e-07
1.43088e-09
2.6481e-07
2.12108e-09
2.63436e-07
3.04121e-09
2.6146e-07
4.36577e-09
2.58659e-07
6.40792e-09
2.5441e-07
1.02988e-08
1.87654e-08
2.48463e-07
7.75132e-08
-2.39028e-07
1.34433e-07
-2.39033e-07
1.73445e-07
-2.03407e-07
1.95725e-07
-1.64229e-07
2.03889e-07
-1.24115e-07
1.99728e-07
-8.36015e-08
1.84665e-07
-4.31811e-08
1.5977e-07
-3.43853e-09
1.25231e-07
3.51274e-08
8.00192e-08
7.20627e-08
2.43002e-08
1.07252e-07
-4.31316e-08
1.40539e-07
-1.24008e-07
1.72064e-07
-2.20809e-07
2.02548e-07
-3.35021e-07
2.33768e-07
-4.67667e-07
2.67028e-07
-6.18885e-07
3.03252e-07
-7.88062e-07
3.42638e-07
-9.72985e-07
3.84268e-07
-1.16955e-06
4.26115e-07
-1.37209e-06
4.65405e-07
-1.57412e-06
4.99197e-07
-1.76935e-06
5.25003e-07
-1.95249e-06
5.41208e-07
-2.11988e-06
5.47204e-07
-2.26962e-06
5.4332e-07
-2.40146e-06
5.30615e-07
-2.51639e-06
5.10607e-07
-2.61622e-06
4.85017e-07
-2.70315e-06
4.55546e-07
-2.77942e-06
4.23727e-07
-2.84709e-06
3.90837e-07
-2.90785e-06
3.57867e-07
-2.96302e-06
3.25531e-07
-3.01351e-06
2.94301e-07
-3.05992e-06
2.6445e-07
-3.1026e-06
2.36102e-07
-3.14168e-06
2.0927e-07
-3.17718e-06
1.83891e-07
-3.20904e-06
1.59858e-07
-3.23715e-06
1.37039e-07
-3.26139e-06
1.15295e-07
-3.28162e-06
9.44843e-08
-3.29771e-06
7.44765e-08
-3.30953e-06
5.51493e-08
-3.3169e-06
3.63934e-08
-3.31964e-06
1.81108e-08
-3.31742e-06
1.94462e-10
-3.31009e-06
-1.74838e-08
-3.29739e-06
-3.50332e-08
-3.27929e-06
-5.24966e-08
-3.25574e-06
-6.98812e-08
-3.22669e-06
-8.71922e-08
-3.19212e-06
-1.04433e-07
-3.15201e-06
-1.21601e-07
-3.10636e-06
-1.3869e-07
-3.05519e-06
-1.55684e-07
-2.99852e-06
-1.7256e-07
-2.93639e-06
-1.89291e-07
-2.86885e-06
-2.05839e-07
-2.79598e-06
-2.22166e-07
-2.71784e-06
-2.38224e-07
-2.63455e-06
-2.53963e-07
-2.54622e-06
-2.6933e-07
-2.453e-06
-2.84267e-07
-2.35503e-06
-2.98715e-07
-2.2525e-06
-3.12615e-07
-2.14561e-06
-3.25904e-07
-2.03457e-06
-3.38522e-07
-1.91963e-06
-3.5041e-07
-1.80104e-06
-3.61511e-07
-1.67909e-06
-3.71771e-07
-1.55406e-06
-3.81139e-07
-1.42627e-06
-3.89568e-07
-1.29603e-06
-3.97017e-07
-1.1637e-06
-4.03451e-07
-1.0296e-06
-4.08837e-07
-8.94113e-07
-4.1315e-07
-7.5759e-07
-4.16369e-07
-6.20405e-07
-4.18475e-07
-4.82928e-07
-4.19453e-07
-3.45518e-07
-4.19289e-07
-2.08501e-07
-4.17967e-07
-7.21307e-08
-4.1549e-07
6.31884e-08
-4.11907e-07
1.96988e-07
-4.07255e-07
3.28961e-07
-4.01539e-07
4.58802e-07
-3.94789e-07
5.86181e-07
-3.87042e-07
7.10776e-07
-3.78335e-07
8.32275e-07
-3.68705e-07
9.50383e-07
-3.58194e-07
1.06482e-06
-3.46846e-07
1.17533e-06
-3.34708e-07
1.28166e-06
-3.21825e-07
1.38358e-06
-3.08243e-07
1.48087e-06
-2.93998e-07
1.57334e-06
-2.79123e-07
1.66077e-06
-2.63635e-07
1.74297e-06
-2.47537e-07
1.81973e-06
-2.30814e-07
1.89085e-06
-2.13431e-07
1.9561e-06
-1.95328e-07
2.01523e-06
-1.76419e-07
2.06796e-06
-1.56583e-07
2.11402e-06
-1.35658e-07
2.15312e-06
-1.13438e-07
2.18492e-06
-8.96757e-08
2.20917e-06
-6.4094e-08
2.22628e-06
-3.60621e-08
2.23708e-06
-4.49319e-09
2.24201e-06
3.17375e-08
2.2412e-06
7.36222e-08
2.23433e-06
1.22148e-07
2.22006e-06
1.77967e-07
2.19455e-06
2.40564e-07
2.15093e-06
3.07859e-07
2.08585e-06
3.77096e-07
1.98709e-06
4.35971e-07
1.84997e-06
4.7349e-07
1.68238e-06
4.83486e-07
1.49777e-06
4.66517e-07
1.31464e-06
4.28297e-07
1.14627e-06
3.76998e-07
1.00003e-06
3.21576e-07
8.77668e-07
2.68562e-07
7.77447e-07
2.21946e-07
6.95825e-07
1.83943e-07
6.28629e-07
1.55126e-07
5.72003e-07
1.34436e-07
5.23016e-07
1.1958e-07
4.79851e-07
1.07913e-07
4.41607e-07
9.73561e-08
4.07933e-07
8.68095e-08
3.78689e-07
7.60343e-08
3.53729e-07
6.52793e-08
3.32816e-07
5.49258e-08
3.15621e-07
4.52862e-08
3.01763e-07
3.65449e-08
2.90845e-07
2.87754e-08
2.82482e-07
2.19773e-08
2.76313e-07
1.61076e-08
2.72012e-07
1.11021e-08
2.69283e-07
6.88611e-09
2.6786e-07
3.3802e-09
2.675e-07
5.0776e-10
2.67996e-07
-1.7953e-09
2.69158e-07
-3.5983e-09
2.70827e-07
-4.96332e-09
2.72865e-07
-5.94857e-09
2.75157e-07
-6.60862e-09
2.77603e-07
-6.99449e-09
2.80122e-07
-7.15378e-09
2.82646e-07
-7.13056e-09
2.85124e-07
-6.96504e-09
2.87515e-07
-6.69295e-09
2.89788e-07
-6.34499e-09
2.91923e-07
-5.94625e-09
2.93906e-07
-5.51589e-09
2.9573e-07
-5.06739e-09
2.97392e-07
-4.60928e-09
2.9889e-07
-4.14665e-09
3.00226e-07
-3.68264e-09
3.014e-07
-3.21975e-09
3.02415e-07
-2.76034e-09
3.03272e-07
-2.30626e-09
3.03973e-07
-1.85791e-09
3.04519e-07
-1.41286e-09
3.04909e-07
-9.64188e-10
3.05137e-07
-4.98528e-10
3.05203e-07
4.09229e-12
3.05086e-07
5.6348e-10
3.04762e-07
1.21375e-09
3.04192e-07
2.00125e-09
3.0332e-07
2.9932e-09
3.02067e-07
4.29371e-09
3.00324e-07
6.1085e-09
2.97959e-07
8.77329e-09
2.94881e-07
1.33769e-08
2.18069e-08
2.9184e-07
3.79284e-08
-2.76957e-07
4.99438e-08
-2.51048e-07
5.16536e-08
-2.05117e-07
4.39187e-08
-1.56494e-07
2.68075e-08
-1.07004e-07
3.52795e-10
-5.71468e-08
-3.55552e-08
-7.27312e-09
-8.13e-08
4.23063e-08
-1.37488e-07
9.13159e-08
-2.04995e-07
1.39569e-07
-2.84759e-07
1.87016e-07
-3.77978e-07
2.33758e-07
-4.86031e-07
2.80116e-07
-6.10158e-07
3.26675e-07
-7.50504e-07
3.74115e-07
-9.06129e-07
4.22653e-07
-1.07463e-06
4.71757e-07
-1.25195e-06
5.19958e-07
-1.43262e-06
5.64935e-07
-1.61046e-06
6.03956e-07
-1.77956e-06
6.34497e-07
-1.93515e-06
6.54796e-07
-2.07429e-06
6.64142e-07
-2.19593e-06
6.62845e-07
-2.30073e-06
6.52003e-07
-2.39059e-06
6.33185e-07
-2.46811e-06
6.08133e-07
-2.53605e-06
5.78545e-07
-2.59697e-06
5.45931e-07
-2.65297e-06
5.11552e-07
-2.70564e-06
4.764e-07
-2.75603e-06
4.41219e-07
-2.80469e-06
4.06534e-07
-2.85186e-06
3.72697e-07
-2.89747e-06
3.39917e-07
-2.94132e-06
3.08299e-07
-2.98309e-06
2.77869e-07
-3.02242e-06
2.48598e-07
-3.05894e-06
2.20417e-07
-3.09232e-06
1.93236e-07
-3.12223e-06
1.6695e-07
-3.14839e-06
1.41448e-07
-3.17052e-06
1.16621e-07
-3.18841e-06
9.23623e-08
-3.20183e-06
6.85714e-08
-3.21059e-06
4.51565e-08
-3.21452e-06
2.20312e-08
-3.21343e-06
-8.88229e-10
-3.20723e-06
-2.36826e-08
-3.19585e-06
-4.64127e-08
-3.17924e-06
-6.91083e-08
-3.15735e-06
-9.17764e-08
-3.13012e-06
-1.14417e-07
-3.09753e-06
-1.37024e-07
-3.05955e-06
-1.59584e-07
-3.01616e-06
-1.82076e-07
-2.96737e-06
-2.04474e-07
-2.91319e-06
-2.26741e-07
-2.85365e-06
-2.48835e-07
-2.78878e-06
-2.70705e-07
-2.71865e-06
-2.92294e-07
-2.64334e-06
-3.13539e-07
-2.56293e-06
-3.34371e-07
-2.47754e-06
-3.54718e-07
-2.38731e-06
-3.74501e-07
-2.29238e-06
-3.93643e-07
-2.19293e-06
-4.1206e-07
-2.08917e-06
-4.29671e-07
-1.98129e-06
-4.46395e-07
-1.86955e-06
-4.62151e-07
-1.7542e-06
-4.76863e-07
-1.63551e-06
-4.90459e-07
-1.51378e-06
-5.0287e-07
-1.38932e-06
-5.14034e-07
-1.26244e-06
-5.23896e-07
-1.13348e-06
-5.32407e-07
-1.00279e-06
-5.39525e-07
-8.70727e-07
-5.45217e-07
-7.37642e-07
-5.49453e-07
-6.03903e-07
-5.52214e-07
-4.69871e-07
-5.53485e-07
-3.35901e-07
-5.53258e-07
-2.02335e-07
-5.51533e-07
-6.94961e-08
-5.48329e-07
6.22699e-08
-5.43673e-07
1.92606e-07
-5.37591e-07
3.21174e-07
-5.30107e-07
4.47639e-07
-5.21254e-07
5.71671e-07
-5.11075e-07
6.92951e-07
-4.99615e-07
8.11173e-07
-4.86927e-07
9.26046e-07
-4.73068e-07
1.0373e-06
-4.58099e-07
1.14468e-06
-4.42085e-07
1.24794e-06
-4.25088e-07
1.34686e-06
-4.07168e-07
1.44124e-06
-3.88377e-07
1.53088e-06
-3.68756e-07
1.61557e-06
-3.48331e-07
1.69514e-06
-3.27107e-07
1.76939e-06
-3.05066e-07
1.83813e-06
-2.82164e-07
1.90113e-06
-2.58331e-07
1.95817e-06
-2.33462e-07
2.00901e-06
-2.0742e-07
2.05338e-06
-1.80031e-07
2.09103e-06
-1.5108e-07
2.12166e-06
-1.20311e-07
2.14501e-06
-8.74422e-08
2.16096e-06
-5.20122e-08
2.1697e-06
-1.32395e-08
2.17166e-06
2.97843e-08
2.16731e-06
7.79732e-08
2.15721e-06
1.32249e-07
2.14176e-06
1.93413e-07
2.12055e-06
2.61773e-07
2.09171e-06
3.36697e-07
2.05228e-06
4.16534e-07
1.99358e-06
4.94664e-07
1.9066e-06
5.60473e-07
1.78724e-06
6.02843e-07
1.63945e-06
6.14305e-07
1.47452e-06
5.93234e-07
1.30663e-06
5.44891e-07
1.14817e-06
4.80026e-07
1.00699e-06
4.09746e-07
8.86205e-07
3.42731e-07
7.85469e-07
2.8468e-07
7.02354e-07
2.3824e-07
6.33589e-07
2.03202e-07
5.7599e-07
1.77178e-07
5.27026e-07
1.56876e-07
4.84966e-07