/*--------------------------------*- C++ -*----------------------------------*\
  =========                 |
  \\      /  F ield         | OpenFOAM: The Open Source CFD Toolbox
   \\    /   O peration     | Website:  https://openfoam.org
    \\  /    A nd           | Version:  9
     \\/     M anipulation  |
\*---------------------------------------------------------------------------*/
FoamFile
{
    format      ascii;
    class       volVectorField;
    location    "0.07";
    object      U;
}
// * * * * * * * * * * * * * * * * * * * * * * * * * * * * * * * * * * * * * //

dimensions      [0 1 -1 0 0 0 0];

internalField   nonuniform List<vector> 
12225
(
(0.934141 -0.305996 0)
(0.897175 -0.0844909 0)
(0.796423 -0.000607821 0)
(0.692091 0.0125927 0)
(0.617766 0.0105128 0)
(0.564276 0.00784473 0)
(0.519594 0.00666105 0)
(0.478542 0.00643671 0)
(0.438856 0.00660378 0)
(0.399199 0.00689082 0)
(0.358977 0.00718426 0)
(0.318172 0.00739664 0)
(0.277294 0.00739884 0)
(0.237313 0.00698156 0)
(0.201037 0.00568236 0)
(0.16963 0.00240713 0)
(0.17982 -0.0116262 0)
(0.125866 0.0570737 0)
(1.02507 0.0802477 0)
(1.00265 0.0676591 0)
(0.964664 0.0365752 0)
(0.91532 0.0270222 0)
(0.866546 0.0229673 0)
(0.821211 0.0198683 0)
(0.778065 0.0182207 0)
(0.736086 0.0179344 0)
(0.694095 0.0185153 0)
(0.650822 0.0195931 0)
(0.605355 0.0209348 0)
(0.557208 0.0223259 0)
(0.506337 0.0234798 0)
(0.453034 0.0239197 0)
(0.398899 0.0228601 0)
(0.343565 0.0163491 0)
(0.299356 0.00142518 0)
(0.204659 0.0664323 0)
(0.99975 0.0217663 0)
(0.998973 0.0357035 0)
(0.993757 0.0351721 0)
(0.971841 0.0341577 0)
(0.941491 0.0320012 0)
(0.907731 0.0296755 0)
(0.87196 0.0286198 0)
(0.834941 0.0290151 0)
(0.796567 0.0305115 0)
(0.756133 0.0327959 0)
(0.712905 0.035634 0)
(0.666291 0.0387719 0)
(0.615884 0.0418566 0)
(0.561313 0.0443108 0)
(0.502763 0.0451707 0)
(0.438267 0.0407619 0)
(0.368909 0.032841 0)
(0.26374 0.104707 0)
(0.998212 0.00596081 0)
(1.00054 0.0288606 0)
(1.00348 0.0369608 0)
(0.992863 0.0392587 0)
(0.973398 0.0392125 0)
(0.94859 0.03849 0)
(0.91978 0.0386322 0)
(0.888136 0.0401136 0)
(0.854075 0.0428197 0)
(0.81733 0.0465604 0)
(0.777409 0.051154 0)
(0.733764 0.0563689 0)
(0.685829 0.0618719 0)
(0.632859 0.0671251 0)
(0.574186 0.0712368 0)
(0.507304 0.0714128 0)
(0.430115 0.072698 0)
(0.326433 0.145859 0)
(0.999189 0.00599941 0)
(1.0019 0.0284998 0)
(1.00655 0.0383159 0)
(1.00148 0.0426272 0)
(0.988817 0.0447392 0)
(0.970533 0.0459353 0)
(0.947512 0.0476529 0)
(0.920819 0.0505538 0)
(0.891028 0.0547309 0)
(0.85812 0.0601355 0)
(0.821796 0.0666779 0)
(0.781595 0.0742037 0)
(0.736919 0.0824744 0)
(0.68689 0.0910982 0)
(0.630481 0.0994116 0)
(0.565291 0.105682 0)
(0.488988 0.116234 0)
(0.393267 0.184974 0)
(0.999561 0.00729546 0)
(1.00212 0.0277499 0)
(1.00688 0.0385159 0)
(1.00479 0.0447264 0)
(0.996458 0.0489053 0)
(0.982858 0.0520868 0)
(0.964468 0.0555778 0)
(0.942098 0.0601214 0)
(0.916288 0.0659632 0)
(0.88713 0.0731856 0)
(0.854451 0.0818063 0)
(0.81789 0.0917785 0)
(0.776894 0.102998 0)
(0.730629 0.115263 0)
(0.678051 0.128178 0)
(0.617162 0.140918 0)
(0.546293 0.159667 0)
(0.461807 0.22271 0)
(0.999604 0.00752958 0)
(1.00184 0.0263934 0)
(1.00616 0.0381269 0)
(1.00564 0.0460377 0)
(1.00006 0.0520879 0)
(0.989805 0.0571973 0)
(0.975066 0.0625267 0)
(0.956382 0.0688307 0)
(0.934182 0.0764574 0)
(0.908589 0.0855984 0)
(0.879509 0.0963746 0)
(0.846671 0.108854 0)
(0.809623 0.123071 0)
(0.767678 0.139002 0)
(0.719976 0.156493 0)
(0.665035 0.175341 0)
(0.602012 0.200892 0)
(0.529988 0.259113 0)
(0.999637 0.007391 0)
(1.00145 0.0250714 0)
(1.0051 0.0375618 0)
(1.00531 0.0468761 0)
(1.00147 0.0545775 0)
(0.993622 0.0614944 0)
(0.981754 0.0686368 0)
(0.966184 0.0767328 0)
(0.947219 0.0861944 0)
(0.924973 0.0972958 0)
(0.899402 0.110247 0)
(0.87032 0.125218 0)
(0.8374 0.142364 0)
(0.800156 0.161801 0)
(0.757992 0.183546 0)
(0.709956 0.207751 0)
(0.655898 0.238664 0)
(0.59631 0.293268 0)
(0.99971 0.00727494 0)
(1.0011 0.0239909 0)
(1.00399 0.0369843 0)
(1.00445 0.0474328 0)
(1.00172 0.0565749 0)
(0.995621 0.0651465 0)
(0.986028 0.0740172 0)
(0.973095 0.0838703 0)
(0.957025 0.0951519 0)
(0.93791 0.108194 0)
(0.915742 0.123274 0)
(0.890416 0.140642 0)
(0.861739 0.16054 0)
(0.829431 0.183172 0)
(0.793174 0.208655 0)
(0.752479 0.237278 0)
(0.707666 0.272176 0)
(0.659809 0.324108 0)
(0.999791 0.0072124 0)
(1.0008 0.0231431 0)
(1.00296 0.0364614 0)
(1.00345 0.0478283 0)
(1.00142 0.0582154 0)
(0.996628 0.0682725 0)
(0.988872 0.0787472 0)
(0.9782 0.0902696 0)
(0.964736 0.103298 0)
(0.948556 0.118198 0)
(0.929682 0.135292 0)
(0.908087 0.154882 0)
(0.883704 0.177257 0)
(0.856442 0.202659 0)
(0.826224 0.231238 0)
(0.792922 0.263277 0)
(0.757113 0.30092 0)
(0.719968 0.35077 0)
(0.999859 0.00717058 0)
(1.00056 0.022495 0)
(1.00211 0.0360287 0)
(1.00251 0.0481384 0)
(1.00097 0.0595888 0)
(0.997192 0.0709549 0)
(0.990966 0.0828814 0)
(0.982273 0.0959432 0)
(0.971186 0.110592 0)
(0.957774 0.127209 0)
(0.942089 0.146138 0)
(0.924176 0.167699 0)
(0.904076 0.192194 0)
(0.881856 0.21986 0)
(0.857622 0.250827 0)
(0.831495 0.285295 0)
(0.804151 0.324602 0)
(0.776605 0.372647 0)
(0.999907 0.00713232 0)
(1.00041 0.0220482 0)
(1.00153 0.0357154 0)
(1.00184 0.0483737 0)
(1.00065 0.0606471 0)
(0.997658 0.0730513 0)
(0.992656 0.0861533 0)
(0.985601 0.100478 0)
(0.976539 0.116459 0)
(0.965544 0.134475 0)
(0.952696 0.154868 0)
(0.938093 0.177956 0)
(0.921861 0.204019 0)
(0.90417 0.233264 0)
(0.885243 0.265775 0)
(0.865342 0.301641 0)
(0.845152 0.341642 0)
(0.825476 0.388062 0)
(0.999945 0.00709901 0)
(1.00031 0.0217084 0)
(1.00114 0.0354652 0)
(1.00141 0.0485659 0)
(1.00055 0.0615295 0)
(0.998269 0.0748208 0)
(0.99439 0.0889412 0)
(0.988858 0.104366 0)
(0.98171 0.121505 0)
(0.973025 0.140719 0)
(0.962911 0.162334 0)
(0.951511 0.186646 0)
(0.939011 0.2139 0)
(0.925649 0.244252 0)
(0.911719 0.277729 0)
(0.897553 0.314309 0)
(0.88378 0.35435 0)
(0.870991 0.399059 0)
(0.999977 0.00705708 0)
(1.00028 0.0214016 0)
(1.00093 0.035216 0)
(1.00126 0.0486956 0)
(1.00081 0.0622813 0)
(0.999339 0.0763919 0)
(0.996694 0.0914659 0)
(0.992832 0.107924 0)
(0.987789 0.126138 0)
(0.981657 0.146438 0)
(0.97457 0.169117 0)
(0.966708 0.194426 0)
(0.958299 0.222556 0)
(0.94962 0.2536 0)
(0.940992 0.287515 0)
(0.932763 0.324169 0)
(0.925452 0.363592 0)
(0.91942 0.406226 0)
(1 0.00698997 0)
(1.00033 0.021082 0)
(1.00098 0.0348922 0)
(1.00155 0.0486438 0)
(1.00168 0.0627224 0)
(1.00119 0.0775053 0)
(0.999958 0.093371 0)
(0.997964 0.110681 0)
(0.995255 0.129757 0)
(0.991936 0.150881 0)
(0.98816 0.174293 0)
(0.984127 0.200185 0)
(0.980083 0.228677 0)
(0.976308 0.259789 0)
(0.97311 0.293413 0)
(0.970798 0.329336 0)
(0.969756 0.367365 0)
(0.970144 0.407475 0)
(1.00003 0.0068581 0)
(1.00048 0.0206309 0)
(1.00137 0.0343037 0)
(1.00244 0.0481426 0)
(1.00343 0.0624935 0)
(1.00418 0.0776911 0)
(1.00463 0.0940555 0)
(1.00478 0.111884 0)
(1.00468 0.131436 0)
(1.00444 0.152933 0)
(1.00423 0.176545 0)
(1.00424 0.202392 0)
(1.00471 0.230521 0)
(1.00589 0.260885 0)
(1.00803 0.293327 0)
(1.01138 0.327588 0)
(1.01618 0.363368 0)
(1.02244 0.400407 0)
(1.00006 0.00659003 0)
(1.00077 0.0198193 0)
(1.00216 0.0330832 0)
(1.00407 0.0466867 0)
(1.00626 0.060944 0)
(1.00862 0.0761419 0)
(1.01111 0.0925389 0)
(1.01373 0.110363 0)
(1.01654 0.129803 0)
(1.01964 0.151005 0)
(1.0232 0.174068 0)
(1.02736 0.199038 0)
(1.03234 0.225895 0)
(1.03832 0.254543 0)
(1.04549 0.2848 0)
(1.05402 0.316403 0)
(1.06402 0.349037 0)
(1.07542 0.382376 0)
(1.0001 0.00606178 0)
(1.00121 0.0182585 0)
(1.00339 0.0306046 0)
(1.0065 0.0434265 0)
(1.0103 0.0570058 0)
(1.01467 0.0715735 0)
(1.01957 0.0873206 0)
(1.02499 0.1044 0)
(1.03098 0.122924 0)
(1.03761 0.142963 0)
(1.045 0.164544 0)
(1.05328 0.187649 0)
(1.06257 0.212208 0)
(1.07301 0.238098 0)
(1.0847 0.265137 0)
(1.09772 0.293091 0)
(1.11213 0.321684 0)
(1.1278 0.350628 0)
(1.00016 0.00507934 0)
(1.00182 0.0153469 0)
(1.00507 0.0258911 0)
(1.00973 0.0370464 0)
(1.01551 0.0490491 0)
(1.02223 0.0620637 0)
(1.02982 0.0762061 0)
(1.03825 0.09155 0)
(1.04752 0.10813 0)
(1.05767 0.125946 0)
(1.06876 0.144964 0)
(1.08085 0.165119 0)
(1.09402 0.186312 0)
(1.10833 0.208413 0)
(1.12381 0.231263 0)
(1.14049 0.25467 0)
(1.15835 0.278429 0)
(1.17729 0.30233 0)
(1.00021 0.00377898 0)
(1.00239 0.011438 0)
(1.00669 0.0195147 0)
(1.01279 0.0283816 0)
(1.02029 0.0382271 0)
(1.02894 0.0491432 0)
(1.03863 0.0611703 0)
(1.04928 0.0743058 0)
(1.06089 0.088516 0)
(1.07344 0.103745 0)
(1.08699 0.119918 0)
(1.10155 0.136945 0)
(1.11717 0.154718 0)
(1.13387 0.173113 0)
(1.15165 0.191994 0)
(1.1705 0.211213 0)
(1.19037 0.230616 0)
(1.21118 0.25006 0)
(1.00023 0.0024969 0)
(1.00282 0.00757541 0)
(1.00795 0.0132805 0)
(1.01516 0.0200344 0)
(1.02387 0.0279473 0)
(1.03378 0.0370264 0)
(1.04475 0.0472354 0)
(1.0567 0.0584987 0)
(1.06958 0.0707223 0)
(1.08342 0.0838083 0)
(1.09822 0.0976564 0)
(1.11401 0.112162 0)
(1.13082 0.127217 0)
(1.14865 0.142708 0)
(1.16748 0.158518 0)
(1.1873 0.174526 0)
(1.20804 0.190616 0)
(1.22964 0.206684 0)
(1.00022 0.00123999 0)
(1.0031 0.00365826 0)
(1.00899 0.00700979 0)
(1.01711 0.0117834 0)
(1.02671 0.0179469 0)
(1.03745 0.0254041 0)
(1.04917 0.0340317 0)
(1.0618 0.0436703 0)
(1.0753 0.054166 0)
(1.08971 0.0653859 0)
(1.10506 0.077212 0)
(1.12137 0.0895344 0)
(1.13867 0.102249 0)
(1.15694 0.115255 0)
(1.17618 0.128454 0)
(1.19634 0.141749 0)
(1.21738 0.15505 0)
(1.23922 0.16828 0)
(1.00015 9.4052e-05 0)
(1.00318 -0.000196334 0)
(1.00976 0.000924893 0)
(1.01863 0.00396156 0)
(1.02881 0.00864254 0)
(1.03996 0.0147661 0)
(1.05195 0.0221081 0)
(1.0647 0.0304076 0)
(1.07823 0.0394504 0)
(1.09263 0.0490776 0)
(1.10794 0.0591622 0)
(1.12421 0.0695972 0)
(1.14146 0.0802891 0)
(1.15969 0.0911531 0)
(1.17888 0.10211 0)
(1.19898 0.113086 0)
(1.21993 0.124012 0)
(1.24168 0.134833 0)
(0.999998 -0.000871226 0)
(1.00296 -0.0039917 0)
(1.01023 -0.00487128 0)
(1.01969 -0.00322956 0)
(1.0301 0.000292578 0)
(1.04122 0.00541725 0)
(1.05293 0.0117969 0)
(1.0652 0.0190459 0)
(1.07818 0.0268939 0)
(1.09199 0.0351693 0)
(1.10674 0.0437482 0)
(1.12249 0.052536 0)
(1.13927 0.0614577 0)
(1.15708 0.070449 0)
(1.17589 0.0794523 0)
(1.19564 0.0884142 0)
(1.21626 0.0972864 0)
(1.2377 0.106031 0)
(0.999703 -0.00131136 0)
(1.00234 -0.0076394 0)
(1.01043 -0.0102955 0)
(1.02023 -0.00964675 0)
(1.03037 -0.00690365 0)
(1.04082 -0.00240541 0)
(1.05151 0.00333593 0)
(1.06258 0.00979282 0)
(1.07432 0.0166536 0)
(1.08695 0.0237572 0)
(1.10064 0.0309986 0)
(1.11545 0.0383099 0)
(1.13142 0.0456433 0)
(1.14852 0.0529595 0)
(1.16672 0.0602238 0)
(1.18593 0.0674034 0)
(1.20608 0.0744693 0)
(1.22709 0.0813974 0)
(0.998837 -0.00016131 0)
(1.00095 -0.0104235 0)
(1.01025 -0.0149545 0)
(1.01996 -0.0150321 0)
(1.02889 -0.0126674 0)
(1.03759 -0.00840768 0)
(1.04622 -0.00302694 0)
(1.05514 0.00281223 0)
(1.06485 0.00880157 0)
(1.0757 0.0148229 0)
(1.08786 0.0208098 0)
(1.10138 0.0267387 0)
(1.11628 0.0325972 0)
(1.13249 0.0383734 0)
(1.14994 0.0440553 0)
(1.16852 0.0496285 0)
(1.18812 0.0550804 0)
(1.20867 0.0603976 0)
(0.9966 0.00185935 0)
(0.998186 -0.012019 0)
(1.00902 -0.0181862 0)
(1.0176 -0.0189041 0)
(1.02361 -0.016571 0)
(1.02879 -0.0122061 0)
(1.03381 -0.00702256 0)
(1.03939 -0.00176778 0)
(1.04623 0.00333357 0)
(1.05472 0.00824968 0)
(1.06496 0.0129739 0)
(1.07697 0.0175441 0)
(1.09065 0.0219856 0)
(1.10589 0.0263116 0)
(1.12255 0.0305279 0)
(1.14048 0.034633 0)
(1.15952 0.0386264 0)
(1.17961 0.0425031 0)
(0.995031 -0.00784488 0)
(0.995971 -0.0187644 0)
(1.00554 -0.0212322 0)
(1.00936 -0.0210796 0)
(1.00899 -0.0182717 0)
(1.00772 -0.0135648 0)
(1.00697 -0.00857084 0)
(1.00781 -0.00400826 0)
(1.01095 8.8204e-05 0)
(1.0166 0.00378365 0)
(1.02472 0.00718788 0)
(1.03511 0.0103984 0)
(1.04754 0.0134674 0)
(1.06177 0.0164228 0)
(1.07761 0.0192793 0)
(1.09487 0.0220408 0)
(1.11334 0.0247103 0)
(1.13297 0.0272871 0)
(1.01437 -0.0677271 0)
(1.00861 -0.0620324 0)
(0.998465 -0.034068 0)
(0.982897 -0.0229759 0)
(0.967208 -0.0177567 0)
(0.954304 -0.0127595 0)
(0.944956 -0.00822883 0)
(0.939677 -0.0045571 0)
(0.938505 -0.00161316 0)
(0.941056 0.00077847 0)
(0.94695 0.00290628 0)
(0.95563 0.00486463 0)
(0.966653 0.00670543 0)
(0.979692 0.00845642 0)
(0.994483 0.01013 0)
(1.0108 0.0117301 0)
(1.02841 0.013256 0)
(1.04726 0.0147078 0)
(0.96701 0.254426 0)
(0.97127 0.085859 0)
(0.915323 0.0103761 0)
(0.845354 -0.00623751 0)
(0.794892 -0.00678496 0)
(0.763704 -0.00429545 0)
(0.744642 -0.00209422 0)
(0.733681 -0.000622562 0)
(0.728848 0.000295926 0)
(0.728469 0.000891024 0)
(0.731184 0.00146654 0)
(0.736544 0.00204064 0)
(0.744264 0.00260997 0)
(0.754069 0.00317057 0)
(0.765696 0.00371555 0)
(0.778914 0.00423955 0)
(0.793463 0.00473295 0)
(0.809243 0.0052033 0)
(0.0480775 -0.0391056 -6.04327e-21)
(0.105155 -0.0779168 4.2394e-21)
(0.166739 -0.107143 0)
(0.246384 -0.121078 0)
(0.331624 -0.116169 0)
(0.394823 -0.104904 -4.99443e-21)
(0.445206 -0.0851678 0)
(0.481534 -0.0466993 0)
(0.496701 -0.0243897 0)
(0.499258 -0.0179216 0)
(0.490705 -0.00230129 4.79628e-21)
(0.468621 0.0188677 0)
(0.435453 0.0357909 0)
(0.396145 0.0396133 0)
(0.363607 0.0256317 0)
(0.326725 0.024071 5.60052e-21)
(0.286438 0.0284396 0)
(0.243407 0.0318321 0)
(0.195583 0.0328782 0)
(0.140007 0.0350156 0)
(0.074332 0.0409615 0)
(-0.00477055 0.0520231 0)
(-0.100954 0.0680941 0)
(-0.216467 0.0890138 7.06089e-21)
(-0.351695 0.113093 -6.8162e-21)
(-0.505083 0.137341 6.64497e-21)
(-0.673549 0.159049 6.56453e-21)
(-0.853098 0.176361 0)
(-1.03936 0.188281 0)
(-1.22801 0.194557 -6.8593e-21)
(-1.41508 0.195501 -7.09368e-21)
(-1.59719 0.191803 0)
(-1.77159 0.18435 0)
(-1.93625 0.174082 -7.96785e-21)
(-2.08975 0.161884 0)
(-2.23123 0.148518 0)
(-2.36032 0.134595 8.82948e-21)
(-2.47695 0.120568 0)
(-2.58134 0.106754 9.29949e-21)
(-2.67387 0.0933463 1.89876e-20)
(-2.75499 0.0804515 0)
(-2.82518 0.0681119 0)
(-2.88492 0.0563343 0)
(-2.93462 0.0451127 0)
(-2.97469 0.0344534 0)
(-3.00547 0.0244085 2.01087e-20)
(-3.02733 0.0151114 2.00987e-20)
(-3.04047 0.00679296 2.00344e-20)
(-3.04501 -0.0003477 0)
(-3.04179 -0.00630235 -1.96893e-20)
(-3.03272 -0.011383 0)
(-3.01766 -0.0160643 1.90689e-20)
(-2.99694 -0.0205253 1.8661e-20)
(-2.97068 -0.0248566 0)
(-2.93897 -0.0291009 0)
(-2.90187 -0.0332792 0)
(-2.8594 -0.037401 1.63811e-20)
(-2.81161 -0.0414697 0)
(-2.75852 -0.0454848 0)
(-2.70019 -0.0494436 0)
(-2.63668 -0.0533413 0)
(-2.56804 -0.057172 0)
(-2.49436 -0.060929 0)
(-2.41574 -0.0646047 0)
(-2.3323 -0.0681913 0)
(-2.24416 -0.0716804 -7.67247e-21)
(-2.15148 -0.075064 0)
(-2.05443 -0.0783341 0)
(-1.95319 -0.0814832 3.82014e-21)
(-1.84797 -0.0845044 2.45358e-21)
(-1.73901 -0.0873919 0)
(-1.62654 -0.0901405 3.80782e-22)
(-1.51082 -0.0927466 -1.84011e-21)
(-1.39213 -0.0952078 0)
(-1.27076 -0.0975233 4.81987e-21)
(-1.14701 -0.0996938 0)
(-1.02119 -0.101722 0)
(-0.893617 -0.103609 -9.36508e-21)
(-0.764617 -0.105361 0)
(-0.634524 -0.106976 1.23802e-20)
(-0.503681 -0.108445 0)
(-0.372477 -0.109721 -1.53261e-20)
(-0.241396 -0.11064 -1.67572e-20)
(-0.111027 -0.110716 -1.81517e-20)
(0.0181017 -0.108989 -3.72886e-20)
(0.146299 -0.105498 3.58771e-20)
(0.273333 -0.10138 0)
(0.398642 -0.0971782 0)
(0.521773 -0.0930015 0)
(0.642397 -0.0888565 2.75688e-20)
(0.760224 -0.08474 2.54116e-20)
(0.874973 -0.0806487 -2.32581e-20)
(0.986372 -0.0765799 0)
(1.09416 -0.0725323 1.90169e-20)
(1.19809 -0.068506 1.69535e-20)
(1.29793 -0.064502 1.49421e-20)
(1.39344 -0.0605213 0)
(1.48442 -0.0565639 0)
(1.57066 -0.0526282 0)
(1.65196 -0.0487102 7.58878e-21)
(1.72809 -0.0448032 0)
(1.79885 -0.0408965 0)
(1.864 -0.0369738 -2.99784e-21)
(1.92326 -0.0330152 0)
(1.97632 -0.0289992 0)
(2.02281 -0.0248426 6.15998e-22)
(2.06215 -0.0204478 0)
(2.0934 -0.0158623 0)
(2.11669 -0.00991453 -3.05623e-21)
(2.12693 -0.000538582 -3.55442e-21)
(2.11733 0.0120355 0)
(2.086 0.0268324 4.0299e-21)
(2.03055 0.0430693 0)
(1.94848 0.0600611 -3.80117e-21)
(1.83802 0.0767302 0)
(1.70009 0.0894861 -2.91224e-21)
(1.54714 0.0900029 -2.27444e-21)
(1.37 0.116371 0)
(1.2109 0.11858 0)
(1.05476 0.0875472 0)
(0.933979 0.074409 0)
(0.831989 0.0421327 0)
(0.747257 0.0276719 0)
(0.67235 0.0162659 0)
(0.606352 0.00966915 3.75393e-21)
(0.548805 0.00632399 -4.21255e-21)
(0.498668 0.0052388 0)
(0.455221 0.00583518 0)
(0.417372 0.00724963 0)
(0.383842 0.00857044 0)
(0.35354 0.00929727 -1.01142e-20)
(0.325782 0.00939254 0)
(0.300324 0.00900476 9.73426e-21)
(0.277213 0.00829878 -9.45787e-21)
(0.256594 0.00740818 0)
(0.238568 0.00643133 0)
(0.223143 0.00543775 0)
(0.21023 0.00447525 8.34532e-21)
(0.199674 0.00357554 8.1228e-21)
(0.191276 0.00275801 0)
(0.184816 0.00203282 7.76643e-21)
(0.180064 0.00140356 7.62954e-21)
(0.176792 0.000869929 -7.5165e-21)
(0.174781 0.000430373 0)
(0.173829 8.15282e-05 0)
(0.173745 -0.000203023 -7.28659e-21)
(0.17438 -0.000454317 0)
(0.175599 -0.000650517 0)
(0.177277 -0.000793774 0)
(0.179295 -0.000891352 0)
(0.181548 -0.000950291 7.08744e-21)
(0.183947 -0.000977335 7.05735e-21)
(0.186417 -0.000978879 0)
(0.188898 -0.000960879 6.99689e-21)
(0.191342 -0.000928698 0)
(0.193715 -0.000886953 0)
(0.195992 -0.000839386 6.89744e-21)
(0.198156 -0.000788759 0)
(0.200199 -0.000736798 6.82302e-21)
(0.202112 -0.000684269 0)
(0.203894 -0.000631272 0)
(0.20554 -0.000577672 6.70065e-21)
(0.207047 -0.0005235 0)
(0.208414 -0.000469128 6.61411e-21)
(0.209639 -0.000415173 0)
(0.210724 -0.000362186 0)
(0.211671 -0.000310293 0)
(0.21248 -0.000258698 -6.4366e-21)
(0.213153 -0.000204867 0)
(0.213691 -0.000141402 6.34911e-21)
(0.214062 -9.2647e-05 0)
(0.21424 -4.81367e-05 0)
(0.214207 1.32723e-05 0)
(0.213916 0.00010104 0)
(0.213302 0.000224969 0)
(0.212237 0.000396724 0)
(0.210633 0.000642185 0)
(0.207704 0.00106744 -1.21396e-20)
(0.204671 0.00184394 0)
(0.190903 0.00439236 0)
(0.0548869 -0.22193 1.79036e-20)
(0.134847 -0.261772 -1.32809e-20)
(0.205206 -0.244844 0)
(0.262852 -0.222759 7.38862e-21)
(0.304441 -0.190489 0)
(0.330728 -0.151121 3.40673e-21)
(0.344399 -0.107927 -7.23698e-21)
(0.348612 -0.0633403 -7.28731e-21)
(0.344696 -0.0195102 0)
(0.330358 0.0202272 -7.28461e-21)
(0.30524 0.0552849 -3.69358e-21)
(0.271843 0.0821361 0)
(0.229415 0.101083 0)
(0.180091 0.111747 0)
(0.115451 0.121528 0)
(0.0383618 0.132018 -4.04052e-21)
(-0.0495449 0.145606 0)
(-0.150861 0.163842 7.21727e-21)
(-0.267929 0.189289 0)
(-0.403085 0.223131 0)
(-0.557061 0.264718 -6.52609e-21)
(-0.728505 0.311293 0)
(-0.913816 0.358709 6.37763e-21)
(-1.10812 0.402677 -3.32315e-21)
(-1.30614 0.439367 3.31352e-21)
(-1.5027 0.465954 -3.35165e-21)
(-1.69313 0.481026 -3.4441e-21)
(-1.8736 0.484513 0)
(-2.04126 0.477376 0)
(-2.19429 0.461249 4.04492e-21)
(-2.33184 0.438099 -4.93199e-21)
(-2.45387 0.409941 0)
(-2.56093 0.37864 0)
(-2.65405 0.345788 5.30224e-21)
(-2.73445 0.312651 0)
(-2.80346 0.280164 0)
(-2.86237 0.248961 -6.22235e-21)
(-2.91238 0.219425 0)
(-2.95453 0.191737 7.10097e-21)
(-2.98972 0.16593 -1.38391e-20)
(-3.0187 0.141935 0)
(-3.04211 0.119618 0)
(-3.06046 0.0988122 -2.99137e-20)
(-3.07418 0.0793378 -3.01983e-20)
(-3.08366 0.0610203 -3.03714e-20)
(-3.08924 0.0437152 1.54828e-20)
(-3.09122 0.0273616 -1.49303e-20)
(-3.08993 0.0120225 -4.50868e-20)
(-3.08558 -0.002184 2.99174e-20)
(-3.07776 -0.0152896 1.44814e-20)
(-3.06496 -0.0275117 0)
(-3.04718 -0.0391563 -1.38927e-20)
(-3.02425 -0.0503841 1.41415e-20)
(-2.9961 -0.0612937 0)
(-2.96271 -0.0719371 0)
(-2.92408 -0.0823404 0)
(-2.88023 -0.0925132 -1.15852e-20)
(-2.83117 -0.102454 0)
(-2.77693 -0.112155 2.16266e-20)
(-2.71755 -0.121603 0)
(-2.65309 -0.130779 1.89871e-20)
(-2.58361 -0.139662 0)
(-2.50918 -0.148231 -1.60888e-20)
(-2.4299 -0.15646 0)
(-2.34589 -0.164323 1.29736e-20)
(-2.25727 -0.171795 -6.31103e-21)
(-2.16419 -0.178849 0)
(-2.06682 -0.18546 -8.00037e-21)
(-1.96534 -0.191604 -2.4309e-21)
(-1.85997 -0.197258 -1.5437e-21)
(-1.75091 -0.202402 0)
(-1.63842 -0.207019 -1.33972e-21)
(-1.52275 -0.211093 1.1158e-21)
(-1.40418 -0.214612 0)
(-1.28299 -0.21757 -2.84408e-21)
(-1.15948 -0.219961 5.61983e-21)
(-1.03398 -0.221784 0)
(-0.906792 -0.223043 5.27984e-21)
(-0.77826 -0.22374 0)
(-0.648721 -0.223879 -1.83656e-20)
(-0.518521 -0.223458 0)
(-0.388003 -0.222461 2.22175e-20)
(-0.257469 -0.220831 8.62245e-21)
(-0.127139 -0.218428 -7.20857e-21)
(0.00262341 -0.215037 -1.50628e-20)
(0.131312 -0.210654 1.51177e-20)
(0.258487 -0.205574 0)
(0.383907 -0.20003 0)
(0.507315 -0.194117 0)
(0.628411 -0.187877 -4.61164e-20)
(0.746896 -0.181334 -1.54859e-20)
(0.862478 -0.174511 1.45239e-20)
(0.974882 -0.167428 0)
(1.08384 -0.16011 1.00975e-20)
(1.18911 -0.152581 -1.12938e-20)
(1.29045 -0.144862 -1.01451e-20)
(1.38764 -0.136976 0)
(1.48046 -0.128937 0)
(1.56871 -0.120757 0)
(1.65218 -0.112439 -5.50271e-21)
(1.73067 -0.103979 0)
(1.80395 -0.0953598 5.39124e-21)
(1.87179 -0.0865552 5.69301e-21)
(1.93395 -0.0775237 -1.57293e-21)
(1.99013 -0.0682038 0)
(2.03999 -0.0584747 1.27325e-21)
(2.08321 -0.0481758 0)
(2.1195 -0.0371066 4.4421e-21)
(2.14808 -0.0241997 -3.0513e-21)
(2.17156 -0.00803874 -3.48213e-21)
(2.19278 0.0114369 0)
(2.20954 0.0340045 -1.04172e-20)
(2.21897 0.0596922 7.0786e-21)
(2.21742 0.0885352 3.029e-21)
(2.19987 0.119689 0)
(2.15958 0.150087 2.24493e-21)
(2.08812 0.175079 5.49974e-21)
(1.98187 0.19072 0)
(1.82916 0.187703 7.2613e-22)
(1.66005 0.171655 -7.00172e-22)
(1.4622 0.146014 -2.25577e-21)
(1.27519 0.125963 0)
(1.10637 0.108354 0)
(0.963155 0.0930612 0)
(0.845042 0.0800875 3.25697e-21)
(0.749024 0.0685171 3.49806e-21)
(0.671399 0.0583144 0)
(0.608227 0.0497013 8.2375e-21)
(0.555658 0.0428583 8.57973e-21)
(0.510259 0.037707 0)
(0.469549 0.0338421 8.64955e-21)
(0.432208 0.0306925 1.73219e-20)
(0.397866 0.0277485 -8.36516e-21)
(0.366696 0.0247348 -8.33044e-21)
(0.339004 0.021616 0)
(0.314974 0.0184875 0)
(0.294592 0.01547 0)
(0.277673 0.0126562 -7.20818e-21)
(0.263932 0.0101012 7.08404e-21)
(0.253039 0.00782951 1.37494e-20)
(0.244653 0.00584476 -6.70739e-21)
(0.238445 0.00413778 6.61055e-21)
(0.234108 0.00269183 6.48997e-21)
(0.231362 0.00148683 0)
(0.229954 0.000502907 0)
(0.229664 -0.000288677 -6.28147e-21)
(0.230283 -0.000929543 0)
(0.231614 -0.0014262 0)
(0.233492 -0.00179334 1.23313e-20)
(0.235779 -0.00204874 0)
(0.238357 -0.00220966 6.10059e-21)
(0.241125 -0.00229237 -6.09977e-21)
(0.243997 -0.002312 0)
(0.246903 -0.00228244 6.0314e-21)
(0.249787 -0.00221616 0)
(0.252607 -0.00212397 0)
(0.255331 -0.00201479 -5.97819e-21)
(0.257935 -0.00189553 1.1882e-20)
(0.260407 -0.00177102 -5.92096e-21)
(0.262736 -0.00164423 0)
(0.264918 -0.00151665 0)
(0.266949 -0.00138901 5.81098e-21)
(0.26883 -0.00126185 0)
(0.270558 -0.00113591 5.7444e-21)
(0.272133 -0.00101213 0)
(0.273557 -0.000891331 0)
(0.274831 -0.000773733 0)
(0.275955 -0.000658384 5.6142e-21)
(0.276929 -0.000542765 0)
(0.277746 -0.00042137 -5.54345e-21)
(0.278407 -0.000297348 0)
(0.278899 -0.00015827 0)
(0.279192 7.01951e-06 1.08796e-20)
(0.279241 0.000211866 -1.0818e-20)
(0.278989 0.000476213 0)
(0.278333 0.000829956 0)
(0.277207 0.00134487 0)
(0.275088 0.0021491 3.19002e-20)
(0.272932 0.00379324 0)
(0.265234 0.00751608 -2.12169e-20)
(0.0420466 -0.405862 2.09341e-22)
(0.0999403 -0.426887 1.65297e-20)
(0.139022 -0.36886 0)
(0.165885 -0.303097 -1.29059e-20)
(0.17972 -0.236115 0)
(0.181536 -0.169166 0)
(0.172915 -0.103245 -9.59157e-23)
(0.155141 -0.0394653 6.20417e-21)
(0.12884 0.0206194 6.29978e-21)
(0.0936663 0.0762806 6.37148e-21)
(0.0490478 0.127417 0)
(-0.00534371 0.173396 0)
(-0.071123 0.213823 -6.08742e-21)
(-0.149757 0.24979 -1.15662e-20)
(-0.243776 0.285234 1.09651e-20)
(-0.35403 0.323371 0)
(-0.480875 0.366683 9.91411e-21)
(-0.624449 0.416799 -4.88175e-21)
(-0.783605 0.473491 0)
(-0.955604 0.534522 9.16683e-21)
(-1.13598 0.595897 4.49078e-21)
(-1.31911 0.652713 -9.41927e-21)
(-1.49902 0.700225 -4.51441e-21)
(-1.67031 0.734687 0)
(-1.82889 0.753877 1.09803e-20)
(-1.97225 0.757235 1.17559e-20)
(-2.09948 0.745668 0)
(-2.21099 0.721155 1.3551e-20)
(-2.30812 0.686301 0)
(-2.39272 0.643923 1.55046e-20)
(-2.46685 0.596732 7.33781e-21)
(-2.53248 0.547104 0)
(-2.5913 0.496973 0)
(-2.64466 0.447792 0)
(-2.69355 0.400564 0)
(-2.73864 0.355902 0)
(-2.78032 0.314109 0)
(-2.81878 0.275259 2.2022e-20)
(-2.85409 0.239264 -3.34641e-20)
(-2.88621 0.205943 0)
(-2.91505 0.17506 0)
(-2.94048 0.146363 0)
(-2.9624 0.119606 -4.94625e-22)
(-2.98068 0.0945606 2.35824e-20)
(-2.99518 0.0710197 4.78049e-20)
(-3.00577 0.0487925 -4.78157e-20)
(-3.01227 0.0276901 -2.40688e-20)
(-3.01443 0.00749839 2.34394e-20)
(-3.01204 -0.0120294 5.03921e-22)
(-3.00489 -0.031125 2.32745e-20)
(-2.99281 -0.0498686 0)
(-2.9758 -0.0682177 2.23444e-20)
(-2.95379 -0.0861734 5.94544e-22)
(-2.92673 -0.103749 0)
(-2.89461 -0.120956 0)
(-2.8574 -0.137798 -1.96652e-20)
(-2.81511 -0.154271 0)
(-2.76773 -0.170361 0)
(-2.71528 -0.186047 1.77762e-20)
(-2.65781 -0.201301 3.2049e-20)
(-2.59534 -0.216092 -1.41664e-20)
(-2.52793 -0.230382 0)
(-2.45567 -0.244133 1.19136e-20)
(-2.37863 -0.257302 0)
(-2.29693 -0.269846 1.14109e-20)
(-2.21069 -0.281721 8.30288e-21)
(-2.12005 -0.292883 -1.61091e-20)
(-2.02517 -0.303289 -7.84873e-21)
(-1.92624 -0.312897 0)
(-1.82347 -0.321671 8.71152e-21)
(-1.71706 -0.329575 0)
(-1.60725 -0.336578 4.60451e-21)
(-1.49431 -0.342654 1.41715e-21)
(-1.37849 -0.347782 -9.34601e-22)
(-1.2601 -0.351945 3.226e-21)
(-1.13941 -0.355133 -9.36809e-21)
(-1.01675 -0.357342 0)
(-0.892436 -0.358569 0)
(-0.766796 -0.35882 1.15461e-20)
(-0.640167 -0.3581 2.12943e-20)
(-0.512893 -0.356419 0)
(-0.385309 -0.353783 -9.56997e-21)
(-0.257727 -0.350198 0)
(-0.130418 -0.345681 3.01348e-20)
(-0.00370182 -0.340313 2.56825e-21)
(0.122049 -0.33415 -2.48881e-21)
(0.246461 -0.3272 -2.02967e-20)
(0.369234 -0.319509 0)
(0.490076 -0.311127 1.95466e-20)
(0.608678 -0.302096 2.0857e-21)
(0.724738 -0.292462 0)
(0.837965 -0.282269 0)
(0.948083 -0.271563 0)
(1.05483 -0.260392 -1.65497e-20)
(1.15797 -0.248802 0)
(1.25725 -0.236837 0)
(1.35248 -0.224535 0)
(1.44342 -0.211927 0)
(1.52989 -0.199036 0)
(1.61169 -0.18587 -6.26149e-21)
(1.6886 -0.172426 0)
(1.76044 -0.158685 -4.24741e-21)
(1.82697 -0.14461 -2.72248e-21)
(1.88795 -0.130143 1.25752e-21)
(1.94313 -0.115203 0)
(1.99222 -0.0996702 -1.42199e-21)
(2.03494 -0.0833843 0)
(2.07097 -0.0661598 -3.6471e-21)
(2.09988 -0.0478797 4.54921e-21)
(2.12172 -0.0280556 1.68413e-20)
(2.13722 -0.00547485 0)
(2.14703 0.0208173 1.90634e-20)
(2.15138 0.0515385 7.01504e-21)
(2.15025 0.087301 0)
(2.14304 0.128195 1.15668e-20)
(2.12762 0.172895 1.00516e-20)
(2.09853 0.218531 -1.12895e-20)
(2.05086 0.262416 0)
(1.97501 0.294745 -6.32024e-22)
(1.8641 0.308275 5.9083e-22)
(1.71598 0.302089 4.76655e-21)
(1.54229 0.278842 0)
(1.36142 0.24593 0)
(1.19009 0.209606 0)
(1.03757 0.174421 5.88723e-21)
(0.908209 0.143104 0)
(0.801642 0.116894 0)
(0.714908 0.0962867 -7.3765e-21)
(0.644089 0.0811389 -7.70631e-21)
(0.585154 0.0705578 0)
(0.534734 0.0630708 0)
(0.490549 0.0571202 -1.55178e-20)
(0.451366 0.0515599 0)
(0.416672 0.0458481 1.46494e-20)
(0.386304 0.0399362 1.42605e-20)
(0.360169 0.034026 0)
(0.3381 0.0283612 0)
(0.319826 0.0231227 -1.28628e-20)
(0.305002 0.018409 3.64134e-23)
(0.293247 0.0142536 2.54066e-23)
(0.284184 0.0106494 0)
(0.27745 0.00756641 -2.32795e-20)
(0.272714 0.00496373 0)
(0.269674 0.00279542 0)
(0.268057 0.00101279 0)
(0.267616 -0.000431439 1.10768e-20)
(0.268133 -0.00157268 0)
(0.26941 -0.00245252 -2.18029e-20)
(0.271278 -0.00310597 -1.08583e-20)
(0.273591 -0.00356557 0)
(0.276223 -0.0038616 -1.07661e-20)
(0.279068 -0.00402198 0)
(0.282037 -0.00407238 0)
(0.285054 -0.00403619 -3.19229e-20)
(0.288061 -0.00393434 2.11958e-20)
(0.29101 -0.0037851 0)
(0.293866 -0.00360378 2.10359e-20)
(0.296602 -0.00340256 -1.04889e-20)
(0.299203 -0.00319044 0)
(0.301655 -0.00297345 0)
(0.303955 -0.00275519 0)
(0.306098 -0.00253763 -3.08387e-20)
(0.308085 -0.002322 0)
(0.309916 -0.00210938 -1.01744e-20)
(0.311593 -0.00190089 0)
(0.313116 -0.00169749 0)
(0.314486 -0.00149941 0)
(0.315704 -0.0013056 0)
(0.31677 -0.001113 0)
(0.31768 -0.000915954 0)
(0.318429 -0.000703791 -1.95108e-20)
(0.31901 -0.000467435 0)
(0.319395 -0.000195593 -9.64673e-21)
(0.319551 0.000131527 2.87739e-20)
(0.319432 0.000542226 0)
(0.318953 0.00108072 0)
(0.31807 0.00183819 -1.89219e-20)
(0.316414 0.00296985 -1.8872e-20)
(0.314811 0.00500333 1.88503e-20)
(0.309866 0.00902795 1.88259e-20)
(0.0141029 -0.511568 -2.96919e-20)
(0.0432539 -0.478651 -2.25577e-20)
(0.0469679 -0.395262 -1.27266e-20)
(0.043896 -0.308945 -5.70496e-21)
(0.0330932 -0.222916 0)
(0.0139332 -0.137991 1.10494e-20)
(-0.0136374 -0.0548739 -5.34792e-21)
(-0.0497704 0.0257606 0)
(-0.094867 0.103268 -5.50626e-21)
(-0.14966 0.177334 0)
(-0.214995 0.248029 1.00414e-20)
(-0.291823 0.31558 0)
(-0.381361 0.380722 4.76094e-21)
(-0.484846 0.44497 9.02166e-21)
(-0.603106 0.510415 -8.53357e-21)
(-0.735793 0.578557 0)
(-0.881529 0.649789 -7.7437e-21)
(-1.03747 0.722773 0)
(-1.19927 0.794282 0)
(-1.36156 0.859764 -7.29076e-21)
(-1.51868 0.914346 0)
(-1.66564 0.953979 -1.31134e-21)
(-1.79889 0.976235 0)
(-1.91661 0.980544 0)
(-2.01871 0.967981 1.77459e-21)
(-2.10646 0.9408 -9.80177e-21)
(-2.18198 0.901902 -1.23865e-20)
(-2.24777 0.854376 -1.13502e-20)
(-2.30627 0.80114 0)
(-2.35961 0.74473 -2.75838e-20)
(-2.40945 0.687193 0)
(-2.45693 0.630071 -1.59596e-20)
(-2.50277 0.574448 0)
(-2.5473 0.52102 0)
(-2.59056 0.470178 1.77491e-20)
(-2.63241 0.422084 0)
(-2.6726 0.376741 -1.87506e-20)
(-2.71081 0.334043 8.06993e-22)
(-2.74671 0.293816 3.8407e-20)
(-2.77998 0.255853 -3.98339e-20)
(-2.81029 0.219928 0)
(-2.83738 0.185819 0)
(-2.861 0.153312 -2.12163e-20)
(-2.8809 0.122207 0)
(-2.89689 0.0923253 -2.0262e-20)
(-2.90877 0.0635065 2.02812e-20)
(-2.91637 0.0356084 2.02361e-20)
(-2.9195 0.00849468 0)
(-2.91806 -0.017983 -1.98689e-20)
(-2.91194 -0.0439218 -1.95592e-20)
(-2.90108 -0.0693913 3.9504e-20)
(-2.88544 -0.0944091 -1.87575e-20)
(-2.86496 -0.118985 -1.82674e-20)
(-2.83958 -0.143121 0)
(-2.80928 -0.166816 0)
(-2.77402 -0.190057 1.64603e-20)
(-2.73379 -0.212826 0)
(-2.68859 -0.235094 0)
(-2.63841 -0.256826 -2.84011e-20)
(-2.58329 -0.277979 -2.67215e-20)
(-2.52325 -0.298505 0)
(-2.45835 -0.318352 0)
(-2.38865 -0.337461 0)
(-2.31424 -0.355772 0)
(-2.23522 -0.373224 -1.73543e-20)
(-2.1517 -0.389754 1.68559e-20)
(-2.06384 -0.405299 1.33126e-20)